<?xml version="1.0"?>
<VTKFile type="UnstructuredGrid"  version="0.1"  >
<UnstructuredGrid>
<Piece  NumberOfPoints="1326" NumberOfCells="2490">
<Points>
<DataArray  type="Float64"  NumberOfComponents="3"  format="ascii">96603.34473994371 -2526306.047878345 0  94860.60104826238 -2521555.331840433 0  89916.18910953001 -2520321.892021782 0  84854.43317180585 -2519718.168215757 0  80314.61977464544 -2517524.417362525 0  76867.98081799694 -2513782.62138356 0  73622.28534584872 -2509858.15374663 0  69467.76628603124 -2506905.752812294 0  64799.63770779336 -2504929.879423514 0  59904.00628883143 -2503518.991897912 0  54853.4132252968 -2502818.502159722 0  49865.74266884173 -2501759.910851945 0  44902.29624028521 -2500587.726242681 0  39988.84419425165 -2499231.836848111 0  35326.06195241294 -2497171.562334582 0  30732.67892640584 -2494955.941541187 0  26188.37022064427 -2492651.666400339 0  21142.71118526055 -2492465.484781222 0  16073.49686451788 -2492476.534328528 0  11249.88497984429 -2490838.458115397 0  6275.636893040417 -2490143.933823594 0  1193.806478562084 -2490412.748797283 0  -3902.046734771465 -2490268.82376175 0  -8998.502509635846 -2490140.206190224 0  -14087.98843244329 -2490311.920017995 0  -19072.76501559985 -2489258.985501559 0  -24134.22051119845 -2488749.415787704 0  -29207.87057342275 -2488375.066351614 0  -34218.08627631886 -2487427.008901847 0  -39189.23133703125 -2486293.710699708 0  -44152.12914232024 -2485122.28931942 0  -48942.15893786328 -2483379.377937937 0  -53492.16616988417 -2481090.28494475 0  -57855.96717375102 -2478455.312193218 0  -62193.35327696647 -2475777.256655459 0  -66734.7217609587 -2473473.07162704 0  -71629.44360672109 -2472062.354387843 0  -76605.42762672834 -2470968.125447943 0  -81687.42440416579 -2470552.439740983 0  -86588.87327080002 -2469195.6250539 0  -91342.29161834823 -2467367.081011288 0  -96385.91209299464 -2466668.227104886 0  -101474.8629163414 -2466882.545448536 0  -106540.8187674373 -2467455.112498367 0  -111624.4708969785 -2467139.131912842 0  -116583.0937090509 -2465966.5534783 0  -121580.017949441 -2464949.548308367 0  -126623.4433166535 -2464245.167141903 0  -131604.9070930343 -2465247.848534836 0  -136683.2389090839 -2465610.680536482 0  -141754.1121788068 -2466091.929756206 0  -146766.9278916852 -2467023.421123319 0  -151832.3344478887 -2467614.947838792 0  -156729.8631253032 -2468963.099225741 0  -161356.8679126435 -2471087.126636002 0  -166344.9130535806 -2472132.098533388 0  -171205.4000231276 -2473668.170313003 0  -175690.4815660599 -2475925.881551192 0  -180782.077071478 -2476186.282570609 0  -185820.219698279 -2476962.888174891 0  -190885.1761619994 -2477486.238486874 0  -195958.718485464 -2477070.777123353 0  -200770.3899254332 -2475408.279856857 0  -205546.8692873479 -2473627.530664755 0  -209925 -2476425.000000183 0  -213925 -2479425.000000258 0  -214924.9999997705 -2484425 0  -217925 -2488425.000000178 0  -222925 -2488425.000000206 0  -227924.9999996851 -2490425 0  -232925 -2490425.000000743 0  -230925 -2495424.999999744 0  -225925 -2496424.999999752 0  -220925 -2497424.99999979 0  -225925 -2499425.000000353 0  -229924.9999995978 -2503425 0  -226925 -2508424.999999596 0  -221925 -2507424.9999998 0  -218924.9999997628 -2511425 0  -221925 -2515425.000000849 0  -219925 -2520424.999999252 0  -217924.9999997316 -2525425 0  -215924.9999997395 -2530425 0  -210925 -2534424.999999748 0  -207695.1762873305 -2538283.331010084 0  -202610.003292264 -2538557.326950263 0  -197551.2812357417 -2537962.352403814 0  -192586.7846688663 -2536802.202322438 0  -187886.3172509225 -2534838.659802383 0  -183067.9131816343 -2533373.075319428 0  -178006.5944919084 -2533348.025387061 0  -173096.3206111284 -2531971.089245703 0  -168154.4707244109 -2530728.400061458 0  -163065.2698403882 -2530423.147888537 0  -157987.7112299006 -2529949.671118056 0  -152890.9759372371 -2529787.855613952 0  -147791.9733645757 -2529884.250588803 0  -142723.2074055563 -2530354.997525746 0  -137890.6974745849 -2531977.703025593 0  -133045.6363466379 -2533563.235953474 0  -128109.5141690132 -2534819.603032706 0  -123908.5019986107 -2537684.70852565 0  -119365.8295432994 -2539988.257521542 0  -114618.1583481154 -2541821.659205975 0  -109604.147847917 -2542748.549401302 0  -104673.4556643177 -2544050.222444715 0  -99756.96429482895 -2545405.251973982 0  -94980.03930230324 -2547139.405420877 0  -90676.52903421161 -2549871.7549917 0  -86164.59726942258 -2552248.345338716 0  -81544.12962656711 -2554395.380522063 0  -76695.18525800858 -2555973.931655067 0  -71996.71883487799 -2557946.594544498 0  -67378.42867831457 -2560105.995067715 0  -62512.92023756374 -2561619.149394813 0  -57632.87923718365 -2563067.6042289 0  -53448.17374070523 -2565936.805034175 0  -49357.19710917832 -2568949.800581331 0  -44747.76575842882 -2571125.049501965 0  -39936.56202196161 -2572815.140052464 0  -35043.49595267572 -2574251.778992833 0  -30186.85583324296 -2575807.108651876 0  -25441.46162825862 -2577673.834227397 0  -20483.48359734264 -2578824.060273113 0  -15445.91612176793 -2579584.499333627 0  -10444.76618652894 -2580522.821899309 0  -5380.097898548018 -2581011.015809262 0  -501.9441734893476 -2582491.274790911 0  3947.669904813003 -2584956.055854702 0  8360.564558078528 -2587486.156477657 0  13237.81566230644 -2588966.755225136 0  17930.75104168088 -2590921.070110867 0  21771.92334622858 -2594204.738500396 0  25002.74283675226 -2598144.263784821 0  28471.2067548034 -2601878.28276416 0  31805.69611113194 -2605718.553501856 0  35848.36394223652 -2608815.389500747 0  39032.55688861636 -2612797.168149744 0  42297.65455396404 -2616714.2500949 0  45587.40098337106 -2620611.195181062 0  48516.03213121062 -2624756.254407449 0  53165.60184108299 -2621282.616958878 0  55441.3416945093 -2616320.54187789 0  57717.08154793562 -2611358.466796902 0  59992.82140136193 -2606396.391715914 0  62268.56125478825 -2601434.316634926 0  64544.30110821456 -2596472.241553938 0  66820.04096164089 -2591510.16647295 0  69095.78081506719 -2586548.091391962 0  71371.52066849351 -2581586.016310974 0  73647.26052191983 -2576623.941229985 0  75923.00037534614 -2571661.866148997 0  78198.74022877245 -2566699.791068009 0  80474.48008219877 -2561737.715987021 0  82750.21993562509 -2556775.640906033 0  85025.95978905141 -2551813.565825044 0  87301.69964247772 -2546851.490744056 0  89577.43949590404 -2541889.415663068 0  91853.17934933034 -2536927.34058208 0  94128.91920275666 -2531965.265501092 0  34167.66165435265 -2546010.433809835 0  -9702.44596617426 -2535485.11809032 0  -48014.98508742747 -2525481.436887715 0  -83920.20274467496 -2509611.945131382 0  -117339.7306085182 -2500587.117934454 0  -148600.7656580886 -2498440.109940145 0  17408.22070543401 -2521371.212968104 0  -190949.6955696386 -2505985.407902659 0  42673.26298168127 -2573919.255139432 0  61304.33950744537 -2537220.937316896 0  7919.86000545044 -2556229.22377694 0  -32917.06887426249 -2547666.220837255 0  -24177.58586678513 -2514252.468008148 0  -71888.88373671086 -2531428.351180482 0  -60497.16818017218 -2504407.969669783 0  40440.0482385106 -2523974.848810697 0  -97452.83857325287 -2490530.958170839 0  -104443.4738236792 -2520892.582661391 0  -168513.7367793184 -2508027.41121581 0  -14002.18983097047 -2557774.877745125 0  -2740.292503471683 -2512201.793152541 0  -132419.7046597875 -2486056.575529079 0  58568.42326537703 -2559188.948041691 0  22735.27249627505 -2570393.312579918 0  -75802.6532880555 -2491519.370259468 0  -55270.54021977298 -2543843.424948696 0  -134873.8069341509 -2513339.541968158 0  -41054.61206037777 -2505263.234137338 0  44395.12047769513 -2592445.165300565 0  -165120.3519070242 -2490389.61498888 0  8197.214592936049 -2538048.420331754 0  -89519.7109657035 -2530254.010156752 0  -201164.1189831511 -2521120.549378251 0  -113384.186674389 -2484300.165916822 0  57601.94746743792 -2520797.677585155 0  -30808.03856426448 -2529059.458406818 0  -200770.3654249554 -2492795.506416648 0  -181081.3349783963 -2492764.999299677 0  29000.01345251895 -2512665.833809018 0  -149074.5838038852 -2484003.741694783 0  -120311.6764027861 -2520591.374245398 0  75733.38804798923 -2532799.242834303 0  -153769.0901489208 -2513970.643377138 0  -181064.6123605132 -2517968.587424158 0  -99319.61109373288 -2504820.405269538 0  11680.60204608414 -2507440.947016951 0  -70156.41415356193 -2516247.207298845 0  27972.15966634774 -2532403.837121567 0  42332.79454975695 -2558857.86041379 0  46337.40143903706 -2537279.481288429 0  -28451.3510131154 -2561013.040837472 0  -2186.017636991198 -2566435.945371256 0  22580.49303807972 -2555991.810800608 0  58020.61661375119 -2574269.640485225 0  -205559.3530791283 -2506260.629863092 0  30919.34842734508 -2582716.810324717 0  69670.33374598324 -2549551.095131685 0  -3145.578006897069 -2547956.769847158 0  1009.428156626846 -2525871.08425747 0  -14633.5324062812 -2504632.523236577 0  -46051.06296108647 -2554321.128514116 0  -19648.53003898157 -2544837.755953503 0  -11834.03953960044 -2521219.650733941 0  -68467.62054762521 -2544082.89475151 0  -131248.8785105995 -2499518.155964629 0  -61998.43689416378 -2491615.760497082 0  -42604.09188429508 -2537412.364552005 0  9373.129040207479 -2572769.444633647 0  -85943.7353653918 -2483137.848826976 0  -28351.30068705606 -2501568.69138444 0  20329.45232180002 -2542806.702733155 0  -37103.4986048183 -2517491.683723277 0  -81431.70818491573 -2540189.326198373 0  -58832.76358060582 -2531418.440981773 0  -50523.14080998801 -2496235.008103674 0  -57535.74948273573 -2516684.044058037 0  -87709.61892097599 -2497560.781252217 0  -73213.58833436994 -2503891.954745851 0  -122870.7356247092 -2477790.453912621 0  -101693.4176978432 -2479247.688806427 0  -112511.8665092294 -2530164.40746855 0  53261.22178745652 -2547767.871315125 0  46787.10650847246 -2513935.735884324 0  -80899.60619525104 -2521520.09769718 0  -92977.45261465941 -2518061.948357456 0  -106808.7100428131 -2496973.222943923 0  68625.91227505662 -2522706.334974116 0  32
[...]
<PointData  Scalars="f_20"> 
<DataArray  type="Float64"  Name="f_20"  format="ascii">2.1871144706797168e+03  2.2585916729367659e+03  2.3196058206013195e+03  2.3736886034866238e+03  2.3581469399689659e+03  2.3569032765625616e+03  2.3915144577246874e+03  2.3675191104087139e+03  2.2816883092558801e+03  2.2544390238890664e+03  2.2682521159177522e+03  2.2823011915801835e+03  2.2856595476526327e+03  2.2737121503327303e+03  2.2746465018381837e+03  2.2866927013257082e+03  2.2652151487449728e+03  2.2129887724324321e+03  2.1992764388898718e+03  2.1820709482261441e+03  2.1252957679687038e+03  2.1045355189231104e+03  2.1238022553342671e+03  2.0961807055740742e+03  2.0583037073307596e+03  2.0669540804940743e+03  2.1010920122321336e+03  2.1041586151769643e+03  2.0165029432192678e+03  1.9406974825927118e+03  1.9242408411241304e+03  1.9389785966907084e+03  1.9270844332986728e+03  1.8660891172124229e+03  1.8118125450107884e+03  1.7811367343381241e+03  1.7980918186030181e+03  1.7929576499702034e+03  1.7717786554272998e+03  1.7493908033012849e+03  1.7019763459899511e+03  1.6432290376450392e+03  1.5838255365426126e+03  1.5311660555162921e+03  1.4901096872552284e+03  1.4695527769979465e+03  1.4238892149599553e+03  1.3525967743296333e+03  1.2930356699071951e+03  1.2479024941682540e+03  1.2130454001869100e+03  1.1883014977843436e+03  1.1473881198799795e+03  1.1130957769917636e+03  1.0615470781290542e+03  9.9724938446458850e+02  9.9312614502846816e+02  9.2232203974355275e+02  8.1073170016320478e+02  7.2230363319895150e+02  6.2048616618515405e+02  4.9902726677959367e+02  3.3904710644106478e+02  1.5251539379501159e+02  7.0366184265719710e+01  2.9112484268231633e+01  7.6931170286769060e+01  1.3208481072410908e+02  7.1524938068138368e+01  7.4854211121477235e+01  1.9384408567935449e+01  3.9381075871643375e+01  1.0374113197393073e+02  2.0357535401503355e+02  5.9917471514276919e+01  1.4127221857388433e+01  2.5376592764322400e+01  1.2832880977054975e+02  1.1674236151758167e+02  3.8402972044955625e+01  5.5678790414350431e+01  7.6781255803479809e+01  6.1055709470544862e+01  8.5419066167952565e+01  1.6956413596743920e+02  4.3979751362423207e+02  5.6483619552201378e+02  6.2740653772603036e+02  6.5652684854436575e+02  7.7407361611857857e+02  9.0121360144702010e+02  9.4459473069229921e+02  1.0020838229296569e+03  1.0442447733591155e+03  1.0684869895057641e+03  1.1029255567056596e+03  1.1314935921546166e+03  1.2001335155262846e+03  1.2658440446011514e+03  1.3112336055252063e+03  1.3664257560447409e+03  1.3750045641184076e+03  1.3780559234275406e+03  1.4269653795075085e+03  1.4921127302261302e+03  1.5564453657317692e+03  1.6033577101322287e+03  1.6464282146383091e+03  1.6702867423108460e+03  1.6940136613084637e+03  1.7200120475087022e+03  1.7642371073706286e+03  1.7920522712685818e+03  1.8027262519414051e+03  1.8367302396216060e+03  1.8242575408326475e+03  1.7875688164774315e+03  1.7720650079247907e+03  1.8373767048586403e+03  1.9547263875009187e+03  2.0165094746614695e+03  2.0444554825219313e+03  2.0699857954531708e+03  2.1024735220510574e+03  2.1404294659106122e+03  2.1930767762874584e+03  2.2021116735538858e+03  2.2104502032049850e+03  2.1882260575009796e+03  2.1477985092637928e+03  2.1588543663658647e+03  2.2009463143074577e+03  2.1767088448366494e+03  2.1047162831688429e+03  2.0975876865126074e+03  2.0817328783053213e+03  2.0913438934981209e+03  2.1161107305451478e+03  2.1188652118465052e+03  2.1045526560047192e+03  2.0549468863877496e+03  2.0988759834750854e+03  2.1830494257138826e+03  2.2664931708230679e+03  2.2919265421857826e+03  2.2901653811402475e+03  2.2633707853681922e+03  2.3136046297789808e+03  2.3668631678117345e+03  2.3693925502412749e+03  2.3356456130758243e+03  2.2996916877627009e+03  2.3485658830904940e+03  2.4375309040147558e+03  2.3798836484175613e+03  2.3092874639913007e+03  2.3208655454920531e+03  2.3174370152136721e+03  2.2502068023796191e+03  2.1669134537209761e+03  2.2780919211072851e+03  2.1252078906115139e+03  1.9130482985838087e+03  1.6436274160734390e+03  1.3920172761456904e+03  1.2460421986153647e+03  2.2254754699511464e+03  8.8006788132954841e+02  2.3567040038469145e+03  2.4007953915793773e+03  2.2516609990636034e+03  1.9472872036944998e+03  2.0989237205637078e+03  1.7689033815585387e+03  1.8118225423936447e+03  2.3686619701903523e+03  1.5504783454905091e+03  1.4832394762551653e+03  1.0428453251870660e+03  2.1220858588511919e+03  2.1447716936862175e+03  1.2573372807370336e+03  2.3691049634436172e+03  2.1869715224861848e+03  1.7089433950415555e+03  1.8441915541542746e+03  1.3396756137384582e+03  1.9328664487908882e+03  2.2494021162425202e+03  1.0928060956387794e+03  2.2501302259347635e+03  1.6706655902440255e+03  3.9038459082431342e+02  1.3776949361230372e+03  2.4404476939407923e+03  2.0296387616918807e+03  6.7963195611756225e+02  9.6777868362232039e+02  2.2176741160277625e+03  1.2057076076821591e+03  1.4026616371153891e+03  2.3489965083637026e+03  1.2110260558908728e+03  8.5904875089754523e+02  1.4994463813344457e+03  2.1893639200001217e+03  1.7792467333416600e+03  2.4340515502719704e+03  2.3403251732968811e+03  2.4179187942107706e+03  2.0109443649305936e+03  2.2229513480372389e+03  2.2869304411426629e+03  2.3393037335888575e+03  6.2327444637625331e+02  2.2227366271762039e+03  2.3469270865343656e+03  2.2112155561226305e+03  2.1756816904652742e+03  2.0460453016090573e+03  1.9109692235536427e+03  2.0017642367369026e+03  2.1602775023465415e+03  1.7735871045320396e+03  1.3160534856859356e+03  1.8125904130311733e+03  1.9663880577158627e+03  2.2617816003391454e+03  1.6592668123335068e+03  2.0872953859039135e+03  2.3095825327276370e+03  2.0033921701466220e+03  1.7485972790880035e+03  1.8365163366987615e+03  1.8898420529989799e+03  1.8561268007104686e+03  1.5692350750810028e+03  1.7496184977183696e+03  1.3345030734516909e+03  1.5084301853684485e+03  1.4141025743623441e+03  2.4316909887302636e+03  2.3555718083502065e+03  1.6839453036043942e+03  1.5496754707234791e+03  1.4673573827370828e+03  2.4101067701487186e+03  2.2981214437690824e+03  2.2797239105655699e+03  2.2588529581730245e+03  1.4640971049718855e+03  1.5485204939256773e+03  1.0478622544674356e+03  1.1657371602327132e+03  1.0916191952461086e+03  1.2981509963929041e+03  2.1179689681919149e+03  2.0650424366454449e+03  2.0812535338335410e+03  1.2527765296121620e+03  2.2288517536937502e+03  1.3418338749987827e+03  1.1383419205087246e+03  6.9660339997937263e+02  8.0812131593245988e+02  1.3723585887290351e+03  2.1936287835508510e+03  1.3942500296693333e+03  6.3094511268500310e+02  2.3291177391787919e+03  1.9123727359307345e+03  1.9224967719023260e+02  2.2366547702655771e+03  1.2463672339258740e+03  2.4444045479912902e+03  2.4104458008821221e+03  1.2263939885555956e+03  2.3131909936341117e+03  1.9476182644357002e+03  2.1843443454240728e+03  1.7103689009715044e+03  2.3119304256285841e+03  2.2676974849510761e+03  1.0411523443953704e+03  1.8497410437014348e+03  1.1117349938401430e+03  1.1866267495530260e+03  2.2358773321727886e+03  2.3332371052794233e+03  2.0009551259027771e+03  2.3667432579110277e+03  2.2287079784385796e+03  2.2890310375258973e+03  2.3194971953328495e+03  1.9753925323761921e+03  1.6093623104627341e+03  2.2080834444543725e+03  3.3799286869335981e+02  2.3899997805395574e+03  2.2342284702600919e+03  1.8216758033476119e+03  7.5755348072005563e+02  2.3270403215867232e+03  1.8690759865988759e+03  2.2212525506210345e+03  9.1362837692484391e+02  2.1508726186958338e+03  2.0131985723342873e+03  2.2771628692350214e+03  2.1169798363245877e+03  4.2195998453473379e+02  2.3420522389358553e+03  8.6042017969745700e+02  1.6629324965180965e+03  2.4454346852707376e+03  2.2995038786461537e+03  1.7197098648106162e+03  2.2819837480805372e+03  2.0499233540439955e+03  2.0860858007220277e+03  1.4398236842844337e+03  2.2152602041046603e+03  2.3430216443332515e+03  1.7349528309188379e+03  2.0666480403228534e+03  2.0523315755229437e+03  1.2149543716308506e+03  1.9101792068659088e+03  2.3602444707022860e+03  1.9131656295074306e+03  1.4896483045251080e+03  1.9745106908256901e+03  1.4219283611946257e+03  2.3009987797654567e+03  2.3616664537645047e+03  2.3292950804726352e+03  1.7857657474992302e+03  1.5852312529814578e+03  2.0871918033823986e+03  4.9460347835863308e+02  2.1607101018863718e+03  1.4730949461524738e+03  2.3701666302434296e+03  1.0530671788072189e+03  2.2444268062668621e+03  1.7991710878287704e+03  1.7862105595134490e+03  9.2402342302745569e+02  1.1713328126346785e+03  1.5365417874474570e+03  1.3885763099173357e+03  1.9319227247493486e+03  1.8863664587462131e+03  2.2007688368351878e+03  1.0910402598718135e+03  1.3081337556929818e+03  1.1266809003626900e+03  2.1405134534047966e+03  2.3422365117895174e+03  1.1980201092951702e+03  1.5419700211170430e+03  2.3472782754928585e+03  2.2919109009755498e+03  2.4090766019113830e+03  2.5623978956670572e+02  6.1922300885078209e+02  1.5235177084251884e+03  9.1552789042423160e+02  1.4039649371592666e+03  9.8465496036032152e+02  2.0549705620245413e+03  1.8646699662322064e+03  2.3190470744795730e+03  1.7620707483652079e+03  8.3515327201404000e+02  2.3814948393875784e+03  2.2323437113072678e+03  8.6896930622748687e+02  2.3511716485037832e+03  1.7429783107555907e+03  1.8218060525316885e+03  1.6535491737109032e+03  2.1996155393546005e+03  2.2265216148539116e+03  1.7724219968708994e+03  1.8781968364023414e+03  5.5561912339168555e+02  5.1430659106689450e+02  2.0276323030879389e+03  2.1499632900946795e+03  2.4036504395461461e+03  9.5861666348651374e+02  1.6087296300895100e+03  2.0417583170270686e+03  2.4803486146366286e+03  2.2116513029871694e+03  2.0075161556585758e+03  2.2492114025736983e+03  1.8762365538305403e+03  2.1444856403586796e+03  2.2482971384956368e+03  2.2073671451875020e+03  1.8422916060770904e+03  2.1614476393646287e+03  2.2455730647096716e+03  1.2908219794208176e+03  2.4020998611383684e+03  1.2400212874444890e+03  2.4397649695564414e+03  1.3029608420545230e+03  2.3431480080944343e+03  2.3805041274057239e+03  2.0964816322150846e+03  2.1485739111430412e+03  1.2391955101683457e+03  2.2488244812738826e+03  1.4637665145119047e+03  1.3835119279575447e+03  2.4442834950041320e+03  4.3219195495619272e+02  1.3829891848018981e+03  1.8122877767240661e+03  1.5902680766078365e+03  2.3064894893240257e+03  1.3124374764058891e+03  1.4726164341262745e+03  2.0748332105659420e+03  1.9332761669301003e+03  1.9568907231980302e+03  2.1001112947145202e+03  2.4255194244240361e+03  2.1234993324927595e+03  1.1990210150950884e+03  1.6590641113400948e+03  2.0219377508956125e+03  2.2280014353595807e+03  9.4809341186660436e+02  1.6157514601985233e+03  2.3137348201842751e+03  1.2668655195058482e+03  1.7871577591280304e+03  1.9243820970742627e+03  1.4931105673149057e+03  2.0796474191644193e+03  1.7088825167849532e+03  1.9949666097959077e+03  1.6431174018986092e+03  2.2002468217951355e+03  2.1525751337136821e+03  1.6039350555858859e+03  2.3369379471797683e+03  2.1149818274240974e+03  1.5460694479458014e+03  1.8511733733830051e+03  1.5300427469366527e+03  2.2070316873509732e+03  1.9958962208785269e+03  1.0784792368927631e+03  1.7878645397004939e+03  1.2192178221671770e+03  2.2823150662992321e+03  1.7385861171959418e+03  1.9716044627156164e+03  2.3246220908982841e+03  1.8604267137034542e+03  1.7002803383370319e+03  1.9321615875449443e+03  2.2016296397322008e+03  1.9475885716335240e+03  1.9678766005585685e+03  1.5152328591523169e+03  2.3707587388695565e+03  2.3928936340177725e+03  1.2698261480171818e+03  1.3555791299215778e+03  7.3109071746204700e+02  1.9018392165085329e+03  1.8846944785385026e+03  1.8277828764220858e+03  1.4208129412616067e+03  2.0870829397959806e+03  1.8593602001231093e+03  2.2979718326337597e+03  1.6337527281744988e+03  2.4538628111186645e+03  2.4160980599248146e+03  1.2589964297118102e+03  2.4415229237319350e+03  2.0639308051411003e+03  1.4159034917829097e+03  1.4011298296899722e+03  1.1270795122363086e+03  2.3016100252911665e+03  1.7198072952493371e+03  1.0177135507686969e+03  1.1794012123796533e+03  2.3036255209687738e+03  2.2269086674192422e+03  2.2963632966750356e+03  2.1330365594111158e+03  2.2055174322348225e+03  2.1998839946443004e+03  2.1179696906893814e+03  1.3575323260651726e+03  1.4075571593753998e+03  2.2838347918437917e+03  2.1199729165979870e+03  2.0448153633109671e+03  1.3225173645473810e+03  2.2474562488735883e+03  1.7188281451984242e+03  2.2071822250692626e+03  2.1671273894938199e+03  1.4752897821478498e+03  8.4803577392175771e+02  2.3649479481138992e+03  1.3429373350009203e+03  1.6988796130600892e+03  2.3523679515377362e+03  2.3561229340300761e+03  2.2531375686604815e+03  1.0253861332638035e+03  2.4280659940913970e+03  9.0408393942964767e+02  1.8185560435120558e+03  2.2092286267667741e+03  1.5049889904425036e+03  2.4728813145572913e+03  1.0586516029580307e+03  1.5325631010577117e+03  2.2930623247680801e+03  1.4429422398812796e+03  4.3383082732383616e+02  2.6992005701942008e+02  2.2442885464739998e+03  1.3607605050323145e+03  1.9469149042425470e+03  7.7098304258729161e+02  1.1013605830883375e+03  2.4115025203550708e+03  1.3296819981489680e+03  2.3057679373204237e+03  1.6357101829543865e+03  2.2588330058886631e+03  2.1225559378215712e+03  1.6888414202695826e+03  2.2116580792377422e+03  1.1839625539861045e+03  2.1162448143999345e+03  1.0524900811661350e+02  2.2449173220808730e+03  1.1457523782562344e+03  1.1398464191622220e+03  2.3517563399352539e+03  1.7537069213769510e+03  1.0955303373383395e+03  2.4155670718800993e+03  1.4058088355973136e+03  2.2162193521569166e+03  2.2294715867658010e+03  1.9740889632328174e+03  1.4807380315898649e+03  1.0717287880438316e+03  2.2204349917318450e+03  2.2046618014471319e+03  2.3466579954372773e+03  2.0554512478674528e+03  1.1524292954115572e+03  2.3367998757760383e+03  2.1287258551606783e+03  7.3072788912362159e+02  1.4698534173508997e+03  2.1299244142153170e+03  2.2876913697395189e+03  1.9421920310079208e+03  1.5215123327271240e+03  1.7787344079142003e+03  7.7043292586422297e+02  2.2707715738702555e+03  1.2545646191932792e+03  1.2764552229495393e+03  9.8150447931826182e+02  2.2584895424350652e+03  2.1347069803095201e+03  6.8543025124017436e+02  2.2566965527819766e+03  1.4111591431234501e+03  9.6437329436072787e+02  1.9203009361448289e+03  2.1452211166821926e+03  2.3332812030484006e+03  2.2497576645700965e+03  1.2315813307522531e+03  2.2829099105005616e+03  1.3414844076053753e+03  1.0421978906819670e+03  3.2138839766638318e+02  2.1559514454045948e+03  1.8495972155378656e+03  7.7009935384271114e+02  1.3568987656860229e+03  1.8673420963463043e+03  2.2412328170514442e+02  2.3558341254571947e+03  2.3160256632252340e+03  1.9408958607357824e+03  2.3531674405598110e+03  1.2383490521329920e+03  2.2673089585131484e+03  4.7733743476262907e+02  2.8484993106226057e+02  1.5496879583759742e+03  2.3113368638440129e+03  2.2577944004612164e+03  2.4214107458303388e+03  1.3483033740214287e+03  1.7400572000276368e+03  1.0303082797720290e+03  2.1866611026540063e+03  2.3439611249309546e+03  2.4610198275018888e+03  2.2998649993285690e+03  1.2403155516678748e+03  2.0015758967867812e+03  6.4364522545473483e+02  1.3974971740154715e+03  1.2401275513471410e+03  1.2448782943258966e+03  2.3435656953473181e+03  2.3062655420115461e+03  2.2727321353480438e+03  1.8311985989699674e+03  1.8718568992838093e+03  2.2660237743521020e+03  2.0830201030684912e+03  1.7012847141176287e+03  1.9869705276422396e+03  1.6832320977954400e+03  2.3227043787354578e+03  1.8944204457049943e+03  1.8856579353681625e+03  8.2821438554830411e+02  2.2853615258975769e+03  2.4510456293495008e+03  1.7908368751171797e+03  2.0600004562373742e+03  1.5498936888696117e+03  1.7476976917077523e+03  9.1797826734543344e+02  2.3534676327144934e+03  2.4228410365531672e+03  2.2777298700402507e+03  2.1952821274366802e+03  2.2304482599859666e+03  1.3657043839609958e+03  3.0470764524824801e+02  1.8661861281240053e+03  2.1874454787780396e+03  2.3324785143953955e+03  2.2276002105289281e+03  1.0176139375514679e+03  2.2897170589200678e+03  2.3433460961900291e+03  2.2710837057459862e+03  2.3608736398143469e+03  1.9637725113002925e+03  1.9046919690997822e+03  1.6830297652795205e+03  1.8071340886080134e+03  1.2593216491393832e+03  1.1278936109258170e+03  1.1448192736063104e+03  1.7215147277023761e+03  1.4371561808884276e+03  1.7533041431193828e+03  2.4161003587610544e+03  1.0291871494343275e+03  2.3172979490162743e+03  9.0354325186126619e+02  1.8357995409596563e+03  4.9129674762277551e+02  1.8346286962422932e+03  4.6184919497353701e+02  2.4179357208083084e+03  2.3328432956045799e+03  1.5853837092799779e+03  2.4500286070721163e+03  1.7700779380645827e+03  9.1177270968417304e+02  2.3240316225856659e+03  2.2199584426482779e+03  1.5905816463023136e+03  8.3537441677983645e+02  6.5650229007283406e+02  2.3664757805078843e+03  2.0477493940737245e+03  1.5586018633026083e+02  1.6639251796378189e+03  1.6051405554895764e+03  8.2161084611587830e+02  1.2424958340783085e+03  1.2120989309186000e+03  1.8248937117359562e+03  1.4403820910962017e+03  2.2352184800687064e+03  2.1992609196741905e+03  2.3445486673560995e+03  4.2729640760980010e+02  5.6051550453852337e+02  1.8364409680523613e+03  1.8395259729041595e+03  1.8630646720381242e+03  2.4619230322844724e+03  2.3499504980849288e+03  1.9763971606827140e+03  1.6386489174645820e+02  2.2068231708425633e+03  2.4141094147109407e+03  2.3404095481611239e+03  2.3698103414069851e+03  2.1925987558218203e+03  2.2307373013662409e+03  2.4625303231352709e+03  5.1833755787230984e+02  2.0670066995881493e+03  2.4275116476214585e+03  2.1663651599425471e+03  1.2673546788398601e+03  2.1439859348252571e+03  2.2865399705509276e+03  1.4341314609134777e+03  1.6211003453911817e+03  2.3719997930093050e+03  1.7048643775554258e+03  3.1707606169604327e+02  2.1606256497728477e+03  2.3834353192501189e+03  1.0803509656256531e+03  1.8123023369513742e+03  2.0565873800933696e+03  2.2923851497905675e+03  1.9970094833539313e+03  2.2597134247256963e+03  1.5937578263932551e+03  2.0507766660116422e+03  1.9751804347107159e+03  1.7987943752457131e+03  1.4171123456572936e+03  2.1896612597878088e+03  1.9918931063926134e+03  2.2540650555492216e+03  6.1539371423247587e+02  4.4552257859797834e+02  1.2133235331899548e+03  2.2491914226649014e+03  1.9062208776229088e+03  1.5343910946304413e+03  7.0903406102474673e+02  2.0973687163297850e+03  1.2205559999187540e+03  2.3373214568815897e+03  2.4018962579126201e+03  9.8244438894598125e+02  2.1558714315063798e+03  2.0631443700973150e+03  2.2271546219597517e+03  2.2581330055729354e+03  2.0273630083429100e+03  2.8545941885537934e+02  2.1925707604499585e+03  1.7863444808981758e+03  1.1955414056165814e+03  2.3742984291368293e+03  2.3615022962918733e+03  2.2552971579818709e+03  1.5541758656943823e+03  1.6405297101480198e+03  2.2290265503661381e+03  2.1200449993079983e+03  7.9510474721175342e+02  1.7791161404819059e+03  2.0434149927777887e+03  2.1052376674022316e+03  1.4996079627801259e+03  1.2801561615345140e+03  2.2396501868958176e+03  2.2306975492604874e+03  2.1764528849700578e+03  2.1182317432981140e+03  2.1692702035195612e+03  2.0360850015518286e+03  1.6899954857784717e+03  2.1683661277913170e+03  2.0701219117917335e+03  2.0399504518729862e+03  1.6872542447008998e+03  1.9516750413528998e+03  1.9306811753105344e+03  3.3849027474584312e+02  4.0793184951175175e+02  2.0629918605288954e+03  2.1535411624685739e+03  2.1587989657439416e+03  2.3188649895082663e+03  1.2345032976264749e+03  2.3246488652776884e+03  1.5268872346514711e+03  2.0092774890187118e+03  2.0792660100677326e+03  1.2057723204606400e+03  1.4301113879264647e+03  2.3647508221973508e+03  1.1725720552761659e+03  1.5082143468689321e+03  1.6055636639189743e+03  2.3297902361915230e+03  1.9558140438677281e+03  7.7443521202555348e+02  1.3822351130828806e+03  1.4768825873068922e+03  2.3177537668303162e+03  2.0225644525363923e+03  1.9685929650970904e+03  1.8396083194526689e+03  2.0887966820965662e+03  8.4666941281403308e+02  1.8193793195778785e+03  9.7199201385814092e+02  2.2181213438943910e+03  1.1813948629042245e