<?xml version="1.0"?>
<VTKFile type="UnstructuredGrid"  version="0.1"  >
<UnstructuredGrid>
<Piece  NumberOfPoints="1326" NumberOfCells="2490">
<Points>
<DataArray  type="Float64"  NumberOfComponents="3"  format="ascii">96603.34473994371 -2526306.047878345 0  94860.60104826238 -2521555.331840433 0  89916.18910953001 -2520321.892021782 0  84854.43317180585 -2519718.168215757 0  80314.61977464544 -2517524.417362525 0  76867.98081799694 -2513782.62138356 0  73622.28534584872 -2509858.15374663 0  69467.76628603124 -2506905.752812294 0  64799.63770779336 -2504929.879423514 0  59904.00628883143 -2503518.991897912 0  54853.4132252968 -2502818.502159722 0  49865.74266884173 -2501759.910851945 0  44902.29624028521 -2500587.726242681 0  39988.84419425165 -2499231.836848111 0  35326.06195241294 -2497171.562334582 0  30732.67892640584 -2494955.941541187 0  26188.37022064427 -2492651.666400339 0  21142.71118526055 -2492465.484781222 0  16073.49686451788 -2492476.534328528 0  11249.88497984429 -2490838.458115397 0  6275.636893040417 -2490143.933823594 0  1193.806478562084 -2490412.748797283 0  -3902.046734771465 -2490268.82376175 0  -8998.502509635846 -2490140.206190224 0  -14087.98843244329 -2490311.920017995 0  -19072.76501559985 -2489258.985501559 0  -24134.22051119845 -2488749.415787704 0  -29207.87057342275 -2488375.066351614 0  -34218.08627631886 -2487427.008901847 0  -39189.23133703125 -2486293.710699708 0  -44152.12914232024 -2485122.28931942 0  -48942.15893786328 -2483379.377937937 0  -53492.16616988417 -2481090.28494475 0  -57855.96717375102 -2478455.312193218 0  -62193.35327696647 -2475777.256655459 0  -66734.7217609587 -2473473.07162704 0  -71629.44360672109 -2472062.354387843 0  -76605.42762672834 -2470968.125447943 0  -81687.42440416579 -2470552.439740983 0  -86588.87327080002 -2469195.6250539 0  -91342.29161834823 -2467367.081011288 0  -96385.91209299464 -2466668.227104886 0  -101474.8629163414 -2466882.545448536 0  -106540.8187674373 -2467455.112498367 0  -111624.4708969785 -2467139.131912842 0  -116583.0937090509 -2465966.5534783 0  -121580.017949441 -2464949.548308367 0  -126623.4433166535 -2464245.167141903 0  -131604.9070930343 -2465247.848534836 0  -136683.2389090839 -2465610.680536482 0  -141754.1121788068 -2466091.929756206 0  -146766.9278916852 -2467023.421123319 0  -151832.3344478887 -2467614.947838792 0  -156729.8631253032 -2468963.099225741 0  -161356.8679126435 -2471087.126636002 0  -166344.9130535806 -2472132.098533388 0  -171205.4000231276 -2473668.170313003 0  -175690.4815660599 -2475925.881551192 0  -180782.077071478 -2476186.282570609 0  -185820.219698279 -2476962.888174891 0  -190885.1761619994 -2477486.238486874 0  -195958.718485464 -2477070.777123353 0  -200770.3899254332 -2475408.279856857 0  -205546.8692873479 -2473627.530664755 0  -209925 -2476425.000000183 0  -213925 -2479425.000000258 0  -214924.9999997705 -2484425 0  -217925 -2488425.000000178 0  -222925 -2488425.000000206 0  -227924.9999996851 -2490425 0  -232925 -2490425.000000743 0  -230925 -2495424.999999744 0  -225925 -2496424.999999752 0  -220925 -2497424.99999979 0  -225925 -2499425.000000353 0  -229924.9999995978 -2503425 0  -226925 -2508424.999999596 0  -221925 -2507424.9999998 0  -218924.9999997628 -2511425 0  -221925 -2515425.000000849 0  -219925 -2520424.999999252 0  -217924.9999997316 -2525425 0  -215924.9999997395 -2530425 0  -210925 -2534424.999999748 0  -207695.1762873305 -2538283.331010084 0  -202610.003292264 -2538557.326950263 0  -197551.2812357417 -2537962.352403814 0  -192586.7846688663 -2536802.202322438 0  -187886.3172509225 -2534838.659802383 0  -183067.9131816343 -2533373.075319428 0  -178006.5944919084 -2533348.025387061 0  -173096.3206111284 -2531971.089245703 0  -168154.4707244109 -2530728.400061458 0  -163065.2698403882 -2530423.147888537 0  -157987.7112299006 -2529949.671118056 0  -152890.9759372371 -2529787.855613952 0  -147791.9733645757 -2529884.250588803 0  -142723.2074055563 -2530354.997525746 0  -137890.6974745849 -2531977.703025593 0  -133045.6363466379 -2533563.235953474 0  -128109.5141690132 -2534819.603032706 0  -123908.5019986107 -2537684.70852565 0  -119365.8295432994 -2539988.257521542 0  -114618.1583481154 -2541821.659205975 0  -109604.147847917 -2542748.549401302 0  -104673.4556643177 -2544050.222444715 0  -99756.96429482895 -2545405.251973982 0  -94980.03930230324 -2547139.405420877 0  -90676.52903421161 -2549871.7549917 0  -86164.59726942258 -2552248.345338716 0  -81544.12962656711 -2554395.380522063 0  -76695.18525800858 -2555973.931655067 0  -71996.71883487799 -2557946.594544498 0  -67378.42867831457 -2560105.995067715 0  -62512.92023756374 -2561619.149394813 0  -57632.87923718365 -2563067.6042289 0  -53448.17374070523 -2565936.805034175 0  -49357.19710917832 -2568949.800581331 0  -44747.76575842882 -2571125.049501965 0  -39936.56202196161 -2572815.140052464 0  -35043.49595267572 -2574251.778992833 0  -30186.85583324296 -2575807.108651876 0  -25441.46162825862 -2577673.834227397 0  -20483.48359734264 -2578824.060273113 0  -15445.91612176793 -2579584.499333627 0  -10444.76618652894 -2580522.821899309 0  -5380.097898548018 -2581011.015809262 0  -501.9441734893476 -2582491.274790911 0  3947.669904813003 -2584956.055854702 0  8360.564558078528 -2587486.156477657 0  13237.81566230644 -2588966.755225136 0  17930.75104168088 -2590921.070110867 0  21771.92334622858 -2594204.738500396 0  25002.74283675226 -2598144.263784821 0  28471.2067548034 -2601878.28276416 0  31805.69611113194 -2605718.553501856 0  35848.36394223652 -2608815.389500747 0  39032.55688861636 -2612797.168149744 0  42297.65455396404 -2616714.2500949 0  45587.40098337106 -2620611.195181062 0  48516.03213121062 -2624756.254407449 0  53165.60184108299 -2621282.616958878 0  55441.3416945093 -2616320.54187789 0  57717.08154793562 -2611358.466796902 0  59992.82140136193 -2606396.391715914 0  62268.56125478825 -2601434.316634926 0  64544.30110821456 -2596472.241553938 0  66820.04096164089 -2591510.16647295 0  69095.78081506719 -2586548.091391962 0  71371.52066849351 -2581586.016310974 0  73647.26052191983 -2576623.941229985 0  75923.00037534614 -2571661.866148997 0  78198.74022877245 -2566699.791068009 0  80474.48008219877 -2561737.715987021 0  82750.21993562509 -2556775.640906033 0  85025.95978905141 -2551813.565825044 0  87301.69964247772 -2546851.490744056 0  89577.43949590404 -2541889.415663068 0  91853.17934933034 -2536927.34058208 0  94128.91920275666 -2531965.265501092 0  34167.66165435265 -2546010.433809835 0  -9702.44596617426 -2535485.11809032 0  -48014.98508742747 -2525481.436887715 0  -83920.20274467496 -2509611.945131382 0  -117339.7306085182 -2500587.117934454 0  -148600.7656580886 -2498440.109940145 0  17408.22070543401 -2521371.212968104 0  -190949.6955696386 -2505985.407902659 0  42673.26298168127 -2573919.255139432 0  61304.33950744537 -2537220.937316896 0  7919.86000545044 -2556229.22377694 0  -32917.06887426249 -2547666.220837255 0  -24177.58586678513 -2514252.468008148 0  -71888.88373671086 -2531428.351180482 0  -60497.16818017218 -2504407.969669783 0  40440.0482385106 -2523974.848810697 0  -97452.83857325287 -2490530.958170839 0  -104443.4738236792 -2520892.582661391 0  -168513.7367793184 -2508027.41121581 0  -14002.18983097047 -2557774.877745125 0  -2740.292503471683 -2512201.793152541 0  -132419.7046597875 -2486056.575529079 0  58568.42326537703 -2559188.948041691 0  22735.27249627505 -2570393.312579918 0  -75802.6532880555 -2491519.370259468 0  -55270.54021977298 -2543843.424948696 0  -134873.8069341509 -2513339.541968158 0  -41054.61206037777 -2505263.234137338 0  44395.12047769513 -2592445.165300565 0  -165120.3519070242 -2490389.61498888 0  8197.214592936049 -2538048.420331754 0  -89519.7109657035 -2530254.010156752 0  -201164.1189831511 -2521120.549378251 0  -113384.186674389 -2484300.165916822 0  57601.94746743792 -2520797.677585155 0  -30808.03856426448 -2529059.458406818 0  -200770.3654249554 -2492795.506416648 0  -181081.3349783963 -2492764.999299677 0  29000.01345251895 -2512665.833809018 0  -149074.5838038852 -2484003.741694783 0  -120311.6764027861 -2520591.374245398 0  75733.38804798923 -2532799.242834303 0  -153769.0901489208 -2513970.643377138 0  -181064.6123605132 -2517968.587424158 0  -99319.61109373288 -2504820.405269538 0  11680.60204608414 -2507440.947016951 0  -70156.41415356193 -2516247.207298845 0  27972.15966634774 -2532403.837121567 0  42332.79454975695 -2558857.86041379 0  46337.40143903706 -2537279.481288429 0  -28451.3510131154 -2561013.040837472 0  -2186.017636991198 -2566435.945371256 0  22580.49303807972 -2555991.810800608 0  58020.61661375119 -2574269.640485225 0  -205559.3530791283 -2506260.629863092 0  30919.34842734508 -2582716.810324717 0  69670.33374598324 -2549551.095131685 0  -3145.578006897069 -2547956.769847158 0  1009.428156626846 -2525871.08425747 0  -14633.5324062812 -2504632.523236577 0  -46051.06296108647 -2554321.128514116 0  -19648.53003898157 -2544837.755953503 0  -11834.03953960044 -2521219.650733941 0  -68467.62054762521 -2544082.89475151 0  -131248.8785105995 -2499518.155964629 0  -61998.43689416378 -2491615.760497082 0  -42604.09188429508 -2537412.364552005 0  9373.129040207479 -2572769.444633647 0  -85943.7353653918 -2483137.848826976 0  -28351.30068705606 -2501568.69138444 0  20329.45232180002 -2542806.702733155 0  -37103.4986048183 -2517491.683723277 0  -81431.70818491573 -2540189.326198373 0  -58832.76358060582 -2531418.440981773 0  -50523.14080998801 -2496235.008103674 0  -57535.74948273573 -2516684.044058037 0  -87709.61892097599 -2497560.781252217 0  -73213.58833436994 -2503891.954745851 0  -122870.7356247092 -2477790.453912621 0  -101693.4176978432 -2479247.688806427 0  -112511.8665092294 -2530164.40746855 0  53261.22178745652 -2547767.871315125 0  46787.10650847246 -2513935.735884324 0  -80899.60619525104 -2521520.09769718 0  -92977.45261465941 -2518061.948357456 0  -106808.7100428131 -2496973.222943923 0  68625.91227505662 -2522706.334974116 0  32
[...]
<PointData  Scalars="f_32"> 
<DataArray  type="Float64"  Name="f_32"  format="ascii">1.0147478340735659e-01  -9.9726233764098215e-01  -2.3798196786520500e+00  -3.4046209580410798e+00  -4.4670709700130971e+00  -5.3201650286911937e+00  -6.0398202945639881e+00  -7.1312127103202441e+00  -8.4481981554828440e+00  -9.2700747216542219e+00  -9.7311261846759045e+00  -1.0214173226950845e+01  -1.0701348116842402e+01  -1.1472683815014133e+01  -1.2226318405694295e+01  -1.2801474794057301e+01  -1.3587034570557549e+01  -1.4640970388588217e+01  -1.5372930913879923e+01  -1.6086272683319166e+01  -1.7259323140975873e+01  -1.7878653236110342e+01  -1.8458811212722704e+01  -1.9562857504792689e+01  -2.0398497133812018e+01  -2.0679308907877544e+01  -2.1189841761954934e+01  -2.2737159846307343e+01  -2.4661450672484005e+01  -2.5907007137544795e+01  -2.6992577654611264e+01  -2.8103534070331371e+01  -2.9637327688839903e+01  -3.1514395099296458e+01  -3.3324489260032465e+01  -3.4842053768167013e+01  -3.6352851114246036e+01  -3.8833094216625213e+01  -4.1075168984479923e+01  -4.2259964008330577e+01  -4.3988919338955782e+01  -4.6124025136646623e+01  -4.8407130651157125e+01  -5.0274578112498133e+01  -5.2165901704164526e+01  -5.3948641745806910e+01  -5.5826914061565816e+01  -5.7112539628126825e+01  -5.7916024454633181e+01  -5.8113307475928444e+01  -5.7971147552045700e+01  -5.8083585963641902e+01  -5.8151922624834000e+01  -5.9280776225880572e+01  -6.1726267910570307e+01  -6.1835558146364036e+01  -5.9295241261736464e+01  -6.1787514763740738e+01  -6.2949248637152841e+01  -6.3695980865991693e+01  -6.2120830699195849e+01  -5.6133983066879992e+01  -4.4782160612688585e+01  -2.6235781324646872e+01  -1.4969471701035966e+01  -9.4068274617608729e+00  -1.3521603131237718e+01  -2.4155309988278379e+01  -1.3857468798061761e+01  -1.6482546829558402e+01  -5.6654739640717704e+00  -9.7346380323106843e+00  -2.0684052652612358e+01  -3.5922403929168773e+01  -1.5618829818025082e+01  -6.5511537476970609e+00  -7.2720651974647401e+00  -3.3087578092451722e+01  -4.3124205519503199e+01  -1.2901502839060525e+01  -1.3479176583414109e+01  -2.1155871683151492e+01  -1.8929631279472872e+01  -2.1367027952566161e+01  -3.3184576757211190e+01  -7.4596412097091203e+01  -1.1632097270628000e+02  -1.2829947257250876e+02  -1.1399281157090128e+02  -1.0398372631666807e+02  -1.0658385768275015e+02  -1.0762118245206440e+02  -1.0297862294948031e+02  -1.0360695329969057e+02  -1.0227922106405686e+02  -9.7126731234825570e+01  -9.2050462896450711e+01  -8.6702147925666267e+01  -8.3922768545748625e+01  -8.4019033743116211e+01  -8.1356498979660415e+01  -8.0900305810006174e+01  -8.1935096297284119e+01  -8.0532004100853285e+01  -7.8074212341439363e+01  -7.3034211181770758e+01  -6.6951116332616508e+01  -5.9860111114002834e+01  -5.3754506262893074e+01  -4.9453332862846615e+01  -4.6015107120482448e+01  -4.3189907009530181e+01  -3.9904029460234042e+01  -3.6974181647068477e+01  -3.4338607496217364e+01  -3.2302743929412443e+01  -3.0729707659556809e+01  -2.9233248067560631e+01  -2.7345412172895998e+01  -2.5075228344683332e+01  -2.3309947611554325e+01  -2.1940530304825302e+01  -2.0337742932829492e+01  -1.8886754023761348e+01  -1.7818694609926954e+01  -1.6414817739065327e+01  -1.4944197364046806e+01  -1.4011382159341654e+01  -1.3137593311386112e+01  -1.2386626652400437e+01  -1.1525653484104255e+01  -1.0594216719610891e+01  -9.7637367034639748e+00  -9.2096659610168050e+00  -8.2054078015172092e+00  -7.2593928138629700e+00  -6.2816246532570688e+00  -5.3344501223439122e+00  -4.3812833284228407e+00  -3.3378592757521170e+00  -2.0703302508130026e+00  -7.5324937324703467e-01  -6.2788319485254518e-01  -6.6031592176618248e-01  -3.3600992556358855e-01  6.3471532976231024e-02  1.9284804991510313e-01  3.6176059023549989e-01  4.7175964138003712e-01  4.6932299707020819e-01  4.1392787657203844e-01  4.3069940552234548e-01  3.3641696821278488e-01  3.8449899651869246e-01  1.4956996026963015e-01  -6.8247199517981111e-02  1.7567052761927815e-01  4.3410756268829109e-01  1.1601617509271676e-01  -8.8750389584312639e-02  -1.0474143807467167e+01  -1.9584704743978222e+01  -3.1826879730931729e+01  -4.5670309831985868e+01  -6.4331662309452682e+01  -9.3285787753104501e+01  -1.4501721765573649e+01  -9.6272793009958008e+01  -6.7542075319983788e+00  -7.0485073248598216e+00  -1.4170114990079190e+01  -2.4541266406212383e+01  -2.3284940515728273e+01  -4.3303456472259015e+01  -3.4465796163482374e+01  -1.0827380005360821e+01  -4.9325711005130003e+01  -6.3801367997790116e+01  -1.0998331550355405e+02  -1.8983630489443961e+01  -1.7862989200003280e+01  -6.5059690573013469e+01  -5.3903102292458787e+00  -1.0909239967663673e+01  -3.8325614953786030e+01  -3.3718547660478080e+01  -8.9252360662441106e+01  -2.7211427305769739e+01  -5.6428836029335212e+00  -1.0193945960560356e+02  -1.5282264797891031e+01  -5.5954765836770399e+01  -8.9174093099735174e+01  -5.6936905435501004e+01  -8.4820167847161443e+00  -2.5279016901868925e+01  -9.1591436318716390e+01  -1.0905393933773072e+02  -1.2775458948130836e+01  -7.8663507934002553e+01  -7.5778249870170100e+01  -4.3551626057507562e+00  -9.9313866522303925e+01  -8.8549526427385871e+01  -5.5151728691445484e+01  -1.5279488087408179e+01  -3.9826199610943917e+01  -1.2346374794216525e+01  -7.7857869953418533e+00  -9.0560754223891688e+00  -2.3053660894632387e+01  -1.5909335272688780e+01  -1.1166126747214612e+01  -3.9739883631914585e+00  -1.0232225465033424e+02  -8.4386324712539533e+00  -3.9264077621783215e+00  -1.6334004531904217e+01  -1.7736045854463889e+01  -2.0729280665043532e+01  -2.9148753969025606e+01  -2.1044775206153375e+01  -2.0877483616358752e+01  -4.1650957958306400e+01  -7.4288799311465880e+01  -3.3779129573814515e+01  -2.8519794898230014e+01  -1.2892214490312004e+01  -4.2653266192426770e+01  -2.3172433360930491e+01  -1.2647075958401460e+01  -2.7745678979463122e+01  -5.1944219758368327e+01  -3.5673441853166963e+01  -2.9839004848825173e+01  -3.4744109296606588e+01  -4.5626073079179776e+01  -3.9061199459004413e+01  -5.8561657600660602e+01  -4.8987381518769567e+01  -7.6678851696408472e+01  -7.0402356592945203e+00  -1.0423914603706386e+01  -4.6704205871305078e+01  -5.6103228903664679e+01  -5.5970382009157298e+01  -6.4321556416260641e+00  -9.7164908066452362e+00  -3.3327142891744761e+00  -3.9287718356324679e+00  -6.8565229158356289e+01  -6.5974255002410430e+01  -1.1834562657660402e+02  -1.0970590363793634e+02  -9.1775403862110096e+01  -9.5298600704282421e+01  -1.7345213591418482e+01  -2.2912175545871388e+01  -1.9720126663130930e+01  -6.5556563245586332e+01  -1.3589602859049112e+01  -6.1001158009757454e+01  -7.9781861992229651e+01  -9.0773112068868926e+01  -8.2565900534858329e+01  -8.5495462832505453e+01  -1.6448573071025713e+01  -7.6468721598739947e+01  -8.2343984490234462e+01  -1.4035584703906354e+01  -3.1176312997873531e+01  -4.3478238420115716e+01  -7.6679516076081189e+00  -8.3525024069493725e+01  -9.4009304299334229e+00  -3.0964135983211825e+00  -9.2532053490607126e+01  -6.2433794373777678e+00  -2.5931124183214415e+01  -1.0722864648435879e+01  -3.6552438297101375e+01  -1.3006132671490700e+01  -1.2621703267362019e+01  -8.8441949983184500e+01  -3.5543590690178725e+01  -1.1824586747406323e+02  -9.4214409482630387e+01  -2.5146076090176095e+00  -1.1091810600489001e+01  -2.3402694155038063e+01  -8.5453119427881408e+00  -1.3891341728968857e+01  -9.1163845726877124e+00  -6.7421408613107534e+00  -2.5981918384432642e+01  -4.4617426565483356e+01  -1.4301661917539025e+01  -4.9532043733306644e+01  -1.0691562652362306e+01  -1.5668740259206931e+01  -3.8681249726059022e+01  -9.4494942218939457e+01  -2.4338998125447775e+00  -3.1145209806067889e+01  -1.6907521072903670e+01  -9.4924845796591427e+01  -1.7161258522186003e+01  -2.1169891862554678e+01  -2.7683844783448315e+00  -1.9142101886925651e+01  -1.1940007577001106e+02  -7.4158429665018328e+00  -1.1765421524221570e+02  -5.8787136256048029e+01  -7.4375001555371636e+00  -2.4987123062793062e+00  -3.8595976994792153e+01  -1.5589426189043849e+01  -2.5012384013390808e+01  -2.4184812167087841e+01  -5.4214667865168735e+01  -6.0975819673445351e+00  -9.0168232168074454e+00  -4.9984426764002727e+01  -2.1336313109289854e+01  -2.1784189499330491e+01  -8.5324919956217570e+01  -3.2056827807563913e+01  -5.0329358793112231e+00  -2.9749818980002356e+01  -5.2597115068120914e+01  -2.8684724133514223e+01  -7.9574411735977534e+01  -1.4004639514406394e+01  -5.1457445546262077e+00  -9.4104398352003553e+00  -4.7075003362839844e+01  -5.9414849982223032e+01  -1.8702500146122222e+01  -1.0050253630697873e+02  -1.6079940128632867e+01  -5.9982139339144624e+01  -6.2227118157337440e+00  -7.8673496918840982e+01  -1.4315677223791644e+01  -3.7199746362810671e+01  -3.5854553585688720e+01  -8.1323833934681929e+01  -6.9090536609880417e+01  -4.9718066439953077e+01  -5.8130194980060018e+01  -2.5181301612067848e+01  -3.1857330601023918e+01  -1.2443829962055991e+01  -9.7979689034219945e+01  -6.0288788484140142e+01  -1.0287928365586110e+02  -1.8813416384812292e+01  -1.1501757731087611e+01  -9.8261775644267800e+01  -5.0393353031084260e+01  -8.1436143469781790e+00  -6.9027177389318339e+00  -1.1728589487199701e+01  -8.5908487408632269e+01  -8.0263031093385194e+01  -5.8665492057939403e+01  -9.3604815784453507e+01  -7.2482789952299171e+01  -1.0702315416360680e+02  -2.2529030749621310e+01  -3.0102649012484495e+01  -1.1465371450043200e+01  -4.2875569296222658e+01  -1.2834083269128774e+02  -4.7257220987327511e+00  -1.5300498049589136e+01  -8.8721836779999336e+01  -2.4880590471440369e+00  -4.1335957430082949e+01  -3.6904984193656460e+01  -4.1963070900752555e+01  -1.9028039688921407e+01  -1.1934961855264920e+01  -4.5727680041082515e+01  -3.4220481031402329e+01  -6.1505840186770996e+01  -9.4286385874758594e+01  -2.2331293430176778e+01  -1.6411174147071218e+01  -1.1129947973400952e+01  -1.1978374559424806e+02  -4.5464813730639335e+01  -2.1477349426050434e+01  -8.1444423403745994e+00  -9.6889104550189948e+00  -2.6134202520693556e+01  -1.2889875425604043e+01  -2.8967251925927876e+01  -1.7390323555361960e+01  -1.8790425340238952e+00  -3.2257940086729646e+00  -3.2456937034488789e+01  -1.7976816717670932e+01  -1.0937303985390175e+01  -8.8490236687498168e+01  -1.8347130278463530e+00  -7.1011322134854325e+01  -1.0033572390593587e+01  -6.1085609475881483e+01  -4.5726697337174969e+00  -1.0115779676307238e+01  -1.8505655277902520e+01  -9.6738808813903816e+00  -6.5850245335891486e+01  -1.6587120410707172e+01  -7.6143978798118269e+01  -7.1963228370837072e+01  -5.0710461295909148e+00  -5.7808771245441818e+01  -8.3135638353456613e+01  -3.9909029759510929e+01  -4.5954921010780794e+01  -1.3513719600982249e+01  -7.2728739317516528e+01  -6.8022303911596495e+01  -2.3956541399935542e+01  -2.2876879783344197e+01  -2.6679974496325357e+01  -2.0627832677941512e+01  -5.8890868656295856e+00  -2.2508086265443993e+01  -9.5117241697580226e+01  -4.1513261725462705e+01  -2.6332695129505488e+01  -1.1687896806331763e+01  -9.1560618014182182e+01  -5.2799954188189083e+01  -5.0478287104603403e+00  -8.2665885370334735e+01  -3.3318134784260614e+01  -2.7596540519083412e+01  -5.0704643036551666e+01  -2.0689112405692235e+01  -4.1743888104973763e+01  -2.4390227468654206e+01  -4.8557455978735788e+01  -1.4930095551302589e+01  -2.1207698974239754e+01  -6.6244364980918803e+01  -9.5600963980436777e+00  -1.9786364556058508e+01  -5.4187328782376881e+01  -3.3934908996311208e+01  -4.7651355507041487e+01  -1.4983478345055758e+01  -2.5005474396648751e+01  -1.0502917021185151e+02  -3.9941090808082535e+01  -8.6889577051163258e+01  -1.3870556394329434e+01  -3.6683744311069503e+01  -2.6488289472901517e+01  -1.0593061394048414e+01  -3.1733244752437717e+01  -5.4095934691215433e+01  -3.0289968391634467e+01  -1.5319172020112571e+01  -2.7655508709464655e+01  -2.8077716220617035e+01  -6.1614995497736842e+01  -1.1858004870258457e+01  -1.2827165471029794e+01  -6.2553098622002182e+01  -5.8353294394941273e+01  -8.8147289011287498e+01  -3.0858307377146964e+01  -3.2524709403624932e+01  -3.6770640539009307e+01  -8.1410227327646993e+01  -2.4948781858018602e+01  -3.4387005776838791e+01  -7.7372984801267446e+00  -4.1255593643912135e+01  -8.0404923224468554e+00  -6.1455374559467639e+00  -9.6426598447638440e+01  -7.2798634146089105e+00  -1.9698686819015702e+01  -6.9921548812209352e+01  -7.3548636192237936e+01  -1.1258375598127765e+02  -1.0369216497575682e+01  -3.7912722918677524e+01  -1.1969265184986791e+02  -1.0268652472480586e+02  -2.2625350610282458e+00  -1.5224431485968519e+00  -1.6477763741242817e+00  -1.8120640555301936e+01  -1.5165651952246197e+01  -9.1695199360889585e+00  -1.8298140654279678e+01  -6.6215477356376397e+01  -8.0793005562593578e+01  -1.2388951709569543e+01  -1.8009401238093300e+01  -2.3656075731453939e+01  -9.2974723656195550e+01  -1.2898087156772782e+01  -4.2867789058434056e+01  -5.0809754037705286e+00  -1.7253913114528089e+01  -5.1989687858160202e+01  -9.5693743401277118e+01  -1.6434411110746816e+00  -5.8915206967058992e+01  -5.4702407653845796e+01  -5.6725525952934870e+00  -1.0825599837886292e+01  -1.0007723687572394e+01  -9.5895190577493580e+01  -6.3166187231862017e+00  -1.0749903891901533e+02  -3.5891401733870822e+01  -1.8212852388018540e+01  -5.2388879330276104e+01  -8.4075508050215397e+00  -1.1573836876572025e+02  -4.9522013792704769e+01  -1.5281430380256300e+00  -6.0424074353334746e+01  -6.4412221464558513e+01  -9.7074606710877944e+01  -1.3923712937681834e+01  -7.9804249540431783e+01  -2.3326518849630101e+01  -7.4184616313384694e+01  -1.1247992531785809e+02  -9.2099295642659431e+00  -6.3430512996803145e+01  -9.6784602696295501e+00  -6.0525338396432979e+01  -4.1717950150208738e+00  -1.7429939768970403e+01  -3.7736126028275436e+01  -7.7036243944834375e+00  -8.4047062201055923e+01  -2.2225729603833010e+01  -3.3286334674228961e+01  -1.3319616429691528e+01  -9.2197491195468331e+01  -1.0381935734799988e+02  -1.6754452064719692e+00  -3.6308852405877090e+01  -7.1406838428918661e+01  -7.3031591556265321e+00  -5.5494244068082217e+01  -7.2319625742552347e+00  -1.5875181428841220e+01  -2.8052947890662320e+01  -5.5237549612537279e+01  -1.0159343459517983e+02  -1.4451406296398499e+01  -1.3276970199366644e+01  -3.7217725304463674e+00  -2.0191519583426231e+01  -9.7475694071233306e+01  -8.7049133217262966e+00  -1.7456590369661832e+01  -1.1320989645710199e+02  -6.6169238392503260e+01  -1.8536763596457448e+01  -1.4923892578238386e+01  -2.6506729854932257e+01  -5.9419144101113758e+01  -4.1147555349874771e+01  -8.8929552060282532e+01  -3.9519528377114095e+00  -6.1095852688225378e+01  -9.2920405746311758e+01  -1.1013613683494651e+02  -8.5176086311817016e+00  -2.2474941886433456e+01  -1.0318805130790510e+02  -1.1743632070864916e+01  -7.5502164002986234e+01  -7.5401536210716586e+01  -2.9438920824193893e+01  -1.6144297001996907e+01  -4.1236679937737835e+00  -1.2088167717287128e+01  -9.1335246723757734e+01  -6.9005224922905892e+00  -8.5866571687923894e+01  -1.0027308980439710e+02  -6.6441997961698945e+01  -1.7491871195492678e+01  -3.6245849078549966e+01  -9.3345035552430843e+01  -6.1868290060297475e+01  -3.3916588584522110e+01  -6.9212210783014854e+01  -6.6183849149009264e+00  -1.2351951142254009e+01  -3.0836521970985185e+01  -1.2243705922045988e+01  -6.5746805839824475e+01  -1.4926776309556132e+01  -7.9365508247625826e+01  -4.6251492674146753e+01  -7.1520948490023187e+01  -9.4626514803303738e+00  -6.7642635953079040e+00  -5.3891438526720359e+00  -5.9333101827375444e+01  -4.6176964234471534e+01  -9.0535066864329920e+01  -1.6965658700538466e+01  -5.9832237442330687e+00  -7.6894396952333572e+00  -1.4510109672030907e+01  -8.8489105802148103e+01  -2.2155846853960796e+01  -8.6921210969230032e+01  -8.1690486305690087e+01  -9.1919850249536680e+01  -6.9684441839954260e+01  -5.0081881975893392e+00  -1.0480051063190974e+01  -1.4818486400762710e+01  -3.2361640035881052e+01  -3.3311797653555729e+01  -1.2698364722439955e+01  -2.3291167388970187e+01  -4.4004202474695077e+01  -2.5075996005458322e+01  -5.0025868848471532e+01  -1.2906378160837151e+00  -2.8755694037223634e+01  -2.7294671137989940e+01  -8.7779044237969188e+01  -2.6207569390540169e+00  -1.3211108405975909e+00  -4.2736635977396659e+01  -1.9890172875876807e+01  -4.7342565320469532e+01  -4.6945568185336448e+01  -1.2143728724610510e+02  -5.3192874592641086e+00  -9.3970661821207404e+00  -1.3466848597851227e+01  -1.0883875232178296e+01  -1.2049620187628836e+01  -8.7530284612623134e+01  -9.8780143434144364e+01  -3.0817939111852709e+01  -1.6460782134956929e+01  -7.6478322901425004e+00  -1.1539072685277194e+01  -7.0695197486292344e+01  -1.0314764155668357e+00  -4.8523107389303775e+00  -3.9894558019379671e+00  -3.6320142415404568e+00  -2.4477730949900320e+01  -3.2879736956042642e+01  -4.0332980080053673e+01  -3.6691328508548125e+01  -7.0184166172934937e+01  -1.1323766226294276e+02  -6.6377093466630583e+01  -4.9944529192172581e+01  -6.5735880503718690e+01  -3.5073132031862229e+01  -3.7423145184672797e+00  -9.3450092410104801e+01  -6.1589447966135626e+00  -9.8573677505789945e+01  -3.5713020882117796e+01  -1.0810054906213342e+02  -3.6909877312608103e+01  -9.4796347336841336e+01  -1.0266972269638842e+01  -3.7174378237165628e+00  -4.7135113361708569e+01  -9.2602985877007225e+00  -4.0081621215856842e+01  -8.6454923601580163e+01  -9.2673238826972888e+00  -1.4444223282004778e+01  -4.5375467820790057e+01  -8.2734078944328246e+01  -6.8360397509427060e+01  -8.2553162356920851e+00  -2.1563739056208647e+01  -4.6539426520217290e+01  -5.7809857565277412e+01  -4.5361505049910797e+01  -8.8990357214544403e+01  -9.6990295180248864e+01  -9.4182505070608599e+01  -3.7900461240864146e+01  -5.5663651753349392e+01  -1.3527274182441248e+01  -8.7833760131059542e+00  -8.0611990688384800e+00  -6.3264951978914191e+01  -9.2891281895296771e+01  -3.3367464888180130e+01  -3.6242150610044519e+01  -3.1158950437006798e+01  -1.1524344186217592e+01  -1.1116702328956125e+01  -2.6403412196261510e+01  -3.3139318295428531e+01  -1.6668151716353762e+01  -7.4278846795252109e+00  -3.7600457724126493e+00  -6.7361591445056304e+00  -1.5730271662263359e+01  -1.4873082329507159e+01  -8.0712530567278460e+00  -6.3263469836396141e+01  -2.2427133071107974e+01  -6.8454449797676276e+00  -9.9554077235153962e+00  -8.1909619662300031e+01  -2.4324764954493583e+00  -1.3356609350246467e+00  -8.1410339204933905e+01  -5.6266884766083969e+01  -1.0823292958091521e+01  -4.2082749440171668e+01  -6.3355644399011474e+01  -1.0801907844549286e+01  -9.6425670507113246e+00  -8.7156573371107385e+01  -3.8517566225670549e+01  -2.1036062321379156e+01  -1.1008462022688512e+01  -2.7620850800578289e+01  -1.3331204712643981e+01  -5.1010585633565022e+01  -2.4215846381704658e+01  -2.5727056246561023e+01  -4.0126052823245281e+01  -7.1158318516493821e+01  -1.4770365401013226e+01  -2.6984100294320235e+01  -1.5886455543338242e+01  -8.8130799008558085e+01  -5.5529897947650397e+01  -9.6157840489172571e+01  -8.4716870412482326e+00  -2.9743176157795908e+01  -4.9301505100574190e+01  -7.8472680649481134e+01  -2.1060006671571841e+01  -8.6603613008079535e+01  -7.3069277526002283e+00  -6.6314087606130769e+00  -1.1768037659569006e+02  -1.7166904186196970e+01  -2.2513892953813940e+01  -6.1444502522841367e+00  -1.2511876127817736e+00  -2.4663026742770299e+01  -4.8903684660068713e+01  -1.5115630830274307e+01  -3.8921122751546427e+01  -6.3631924716029474e+01  -1.3211564934792440e+01  -8.4947805136762398e+00  -1.4784385917356252e+01  -4.8540285244317175e+01  -4.3869958915127626e+01  -1.4267184613672711e+01  -1.8422784840064935e+01  -1.1712141933809670e+02  -4.4969467088421254e+01  -2.2732989903945878e+01  -1.9760821369876815e+01  -5.8591449958872985e+01  -5.9766244397972308e+01  -1.6027812325138100e+01  -1.6520935768319511e+01  -4.3431395185186110e+00  -1.8060651635509629e+01  -1.6631124552083925e+01  -2.1683289835379050e+01  -4.2803981199448430e+01  -1.9506879300034139e+01  -1.9914344180514480e+01  -2.1850474090504456e+01  -3.9816921550343515e+01  -2.5633718306239476e+01  -3.0