<?xml version="1.0"?>
<VTKFile type="UnstructuredGrid"  version="0.1"  >
<UnstructuredGrid>
<Piece  NumberOfPoints="1326" NumberOfCells="2490">
<Points>
<DataArray  type="Float64"  NumberOfComponents="3"  format="ascii">96603.34473994371 -2526306.047878345 0  94860.60104826238 -2521555.331840433 0  89916.18910953001 -2520321.892021782 0  84854.43317180585 -2519718.168215757 0  80314.61977464544 -2517524.417362525 0  76867.98081799694 -2513782.62138356 0  73622.28534584872 -2509858.15374663 0  69467.76628603124 -2506905.752812294 0  64799.63770779336 -2504929.879423514 0  59904.00628883143 -2503518.991897912 0  54853.4132252968 -2502818.502159722 0  49865.74266884173 -2501759.910851945 0  44902.29624028521 -2500587.726242681 0  39988.84419425165 -2499231.836848111 0  35326.06195241294 -2497171.562334582 0  30732.67892640584 -2494955.941541187 0  26188.37022064427 -2492651.666400339 0  21142.71118526055 -2492465.484781222 0  16073.49686451788 -2492476.534328528 0  11249.88497984429 -2490838.458115397 0  6275.636893040417 -2490143.933823594 0  1193.806478562084 -2490412.748797283 0  -3902.046734771465 -2490268.82376175 0  -8998.502509635846 -2490140.206190224 0  -14087.98843244329 -2490311.920017995 0  -19072.76501559985 -2489258.985501559 0  -24134.22051119845 -2488749.415787704 0  -29207.87057342275 -2488375.066351614 0  -34218.08627631886 -2487427.008901847 0  -39189.23133703125 -2486293.710699708 0  -44152.12914232024 -2485122.28931942 0  -48942.15893786328 -2483379.377937937 0  -53492.16616988417 -2481090.28494475 0  -57855.96717375102 -2478455.312193218 0  -62193.35327696647 -2475777.256655459 0  -66734.7217609587 -2473473.07162704 0  -71629.44360672109 -2472062.354387843 0  -76605.42762672834 -2470968.125447943 0  -81687.42440416579 -2470552.439740983 0  -86588.87327080002 -2469195.6250539 0  -91342.29161834823 -2467367.081011288 0  -96385.91209299464 -2466668.227104886 0  -101474.8629163414 -2466882.545448536 0  -106540.8187674373 -2467455.112498367 0  -111624.4708969785 -2467139.131912842 0  -116583.0937090509 -2465966.5534783 0  -121580.017949441 -2464949.548308367 0  -126623.4433166535 -2464245.167141903 0  -131604.9070930343 -2465247.848534836 0  -136683.2389090839 -2465610.680536482 0  -141754.1121788068 -2466091.929756206 0  -146766.9278916852 -2467023.421123319 0  -151832.3344478887 -2467614.947838792 0  -156729.8631253032 -2468963.099225741 0  -161356.8679126435 -2471087.126636002 0  -166344.9130535806 -2472132.098533388 0  -171205.4000231276 -2473668.170313003 0  -175690.4815660599 -2475925.881551192 0  -180782.077071478 -2476186.282570609 0  -185820.219698279 -2476962.888174891 0  -190885.1761619994 -2477486.238486874 0  -195958.718485464 -2477070.777123353 0  -200770.3899254332 -2475408.279856857 0  -205546.8692873479 -2473627.530664755 0  -209925 -2476425.000000183 0  -213925 -2479425.000000258 0  -214924.9999997705 -2484425 0  -217925 -2488425.000000178 0  -222925 -2488425.000000206 0  -227924.9999996851 -2490425 0  -232925 -2490425.000000743 0  -230925 -2495424.999999744 0  -225925 -2496424.999999752 0  -220925 -2497424.99999979 0  -225925 -2499425.000000353 0  -229924.9999995978 -2503425 0  -226925 -2508424.999999596 0  -221925 -2507424.9999998 0  -218924.9999997628 -2511425 0  -221925 -2515425.000000849 0  -219925 -2520424.999999252 0  -217924.9999997316 -2525425 0  -215924.9999997395 -2530425 0  -210925 -2534424.999999748 0  -207695.1762873305 -2538283.331010084 0  -202610.003292264 -2538557.326950263 0  -197551.2812357417 -2537962.352403814 0  -192586.7846688663 -2536802.202322438 0  -187886.3172509225 -2534838.659802383 0  -183067.9131816343 -2533373.075319428 0  -178006.5944919084 -2533348.025387061 0  -173096.3206111284 -2531971.089245703 0  -168154.4707244109 -2530728.400061458 0  -163065.2698403882 -2530423.147888537 0  -157987.7112299006 -2529949.671118056 0  -152890.9759372371 -2529787.855613952 0  -147791.9733645757 -2529884.250588803 0  -142723.2074055563 -2530354.997525746 0  -137890.6974745849 -2531977.703025593 0  -133045.6363466379 -2533563.235953474 0  -128109.5141690132 -2534819.603032706 0  -123908.5019986107 -2537684.70852565 0  -119365.8295432994 -2539988.257521542 0  -114618.1583481154 -2541821.659205975 0  -109604.147847917 -2542748.549401302 0  -104673.4556643177 -2544050.222444715 0  -99756.96429482895 -2545405.251973982 0  -94980.03930230324 -2547139.405420877 0  -90676.52903421161 -2549871.7549917 0  -86164.59726942258 -2552248.345338716 0  -81544.12962656711 -2554395.380522063 0  -76695.18525800858 -2555973.931655067 0  -71996.71883487799 -2557946.594544498 0  -67378.42867831457 -2560105.995067715 0  -62512.92023756374 -2561619.149394813 0  -57632.87923718365 -2563067.6042289 0  -53448.17374070523 -2565936.805034175 0  -49357.19710917832 -2568949.800581331 0  -44747.76575842882 -2571125.049501965 0  -39936.56202196161 -2572815.140052464 0  -35043.49595267572 -2574251.778992833 0  -30186.85583324296 -2575807.108651876 0  -25441.46162825862 -2577673.834227397 0  -20483.48359734264 -2578824.060273113 0  -15445.91612176793 -2579584.499333627 0  -10444.76618652894 -2580522.821899309 0  -5380.097898548018 -2581011.015809262 0  -501.9441734893476 -2582491.274790911 0  3947.669904813003 -2584956.055854702 0  8360.564558078528 -2587486.156477657 0  13237.81566230644 -2588966.755225136 0  17930.75104168088 -2590921.070110867 0  21771.92334622858 -2594204.738500396 0  25002.74283675226 -2598144.263784821 0  28471.2067548034 -2601878.28276416 0  31805.69611113194 -2605718.553501856 0  35848.36394223652 -2608815.389500747 0  39032.55688861636 -2612797.168149744 0  42297.65455396404 -2616714.2500949 0  45587.40098337106 -2620611.195181062 0  48516.03213121062 -2624756.254407449 0  53165.60184108299 -2621282.616958878 0  55441.3416945093 -2616320.54187789 0  57717.08154793562 -2611358.466796902 0  59992.82140136193 -2606396.391715914 0  62268.56125478825 -2601434.316634926 0  64544.30110821456 -2596472.241553938 0  66820.04096164089 -2591510.16647295 0  69095.78081506719 -2586548.091391962 0  71371.52066849351 -2581586.016310974 0  73647.26052191983 -2576623.941229985 0  75923.00037534614 -2571661.866148997 0  78198.74022877245 -2566699.791068009 0  80474.48008219877 -2561737.715987021 0  82750.21993562509 -2556775.640906033 0  85025.95978905141 -2551813.565825044 0  87301.69964247772 -2546851.490744056 0  89577.43949590404 -2541889.415663068 0  91853.17934933034 -2536927.34058208 0  94128.91920275666 -2531965.265501092 0  34167.66165435265 -2546010.433809835 0  -9702.44596617426 -2535485.11809032 0  -48014.98508742747 -2525481.436887715 0  -83920.20274467496 -2509611.945131382 0  -117339.7306085182 -2500587.117934454 0  -148600.7656580886 -2498440.109940145 0  17408.22070543401 -2521371.212968104 0  -190949.6955696386 -2505985.407902659 0  42673.26298168127 -2573919.255139432 0  61304.33950744537 -2537220.937316896 0  7919.86000545044 -2556229.22377694 0  -32917.06887426249 -2547666.220837255 0  -24177.58586678513 -2514252.468008148 0  -71888.88373671086 -2531428.351180482 0  -60497.16818017218 -2504407.969669783 0  40440.0482385106 -2523974.848810697 0  -97452.83857325287 -2490530.958170839 0  -104443.4738236792 -2520892.582661391 0  -168513.7367793184 -2508027.41121581 0  -14002.18983097047 -2557774.877745125 0  -2740.292503471683 -2512201.793152541 0  -132419.7046597875 -2486056.575529079 0  58568.42326537703 -2559188.948041691 0  22735.27249627505 -2570393.312579918 0  -75802.6532880555 -2491519.370259468 0  -55270.54021977298 -2543843.424948696 0  -134873.8069341509 -2513339.541968158 0  -41054.61206037777 -2505263.234137338 0  44395.12047769513 -2592445.165300565 0  -165120.3519070242 -2490389.61498888 0  8197.214592936049 -2538048.420331754 0  -89519.7109657035 -2530254.010156752 0  -201164.1189831511 -2521120.549378251 0  -113384.186674389 -2484300.165916822 0  57601.94746743792 -2520797.677585155 0  -30808.03856426448 -2529059.458406818 0  -200770.3654249554 -2492795.506416648 0  -181081.3349783963 -2492764.999299677 0  29000.01345251895 -2512665.833809018 0  -149074.5838038852 -2484003.741694783 0  -120311.6764027861 -2520591.374245398 0  75733.38804798923 -2532799.242834303 0  -153769.0901489208 -2513970.643377138 0  -181064.6123605132 -2517968.587424158 0  -99319.61109373288 -2504820.405269538 0  11680.60204608414 -2507440.947016951 0  -70156.41415356193 -2516247.207298845 0  27972.15966634774 -2532403.837121567 0  42332.79454975695 -2558857.86041379 0  46337.40143903706 -2537279.481288429 0  -28451.3510131154 -2561013.040837472 0  -2186.017636991198 -2566435.945371256 0  22580.49303807972 -2555991.810800608 0  58020.61661375119 -2574269.640485225 0  -205559.3530791283 -2506260.629863092 0  30919.34842734508 -2582716.810324717 0  69670.33374598324 -2549551.095131685 0  -3145.578006897069 -2547956.769847158 0  1009.428156626846 -2525871.08425747 0  -14633.5324062812 -2504632.523236577 0  -46051.06296108647 -2554321.128514116 0  -19648.53003898157 -2544837.755953503 0  -11834.03953960044 -2521219.650733941 0  -68467.62054762521 -2544082.89475151 0  -131248.8785105995 -2499518.155964629 0  -61998.43689416378 -2491615.760497082 0  -42604.09188429508 -2537412.364552005 0  9373.129040207479 -2572769.444633647 0  -85943.7353653918 -2483137.848826976 0  -28351.30068705606 -2501568.69138444 0  20329.45232180002 -2542806.702733155 0  -37103.4986048183 -2517491.683723277 0  -81431.70818491573 -2540189.326198373 0  -58832.76358060582 -2531418.440981773 0  -50523.14080998801 -2496235.008103674 0  -57535.74948273573 -2516684.044058037 0  -87709.61892097599 -2497560.781252217 0  -73213.58833436994 -2503891.954745851 0  -122870.7356247092 -2477790.453912621 0  -101693.4176978432 -2479247.688806427 0  -112511.8665092294 -2530164.40746855 0  53261.22178745652 -2547767.871315125 0  46787.10650847246 -2513935.735884324 0  -80899.60619525104 -2521520.09769718 0  -92977.45261465941 -2518061.948357456 0  -106808.7100428131 -2496973.222943923 0  68625.91227505662 -2522706.334974116 0  32
[...]
<PointData  Scalars="f_56"> 
<DataArray  type="Float64"  Name="f_56"  format="ascii">2.5148581076789790e+02  2.5143704537219250e+02  2.5148722513781937e+02  2.5154548682052155e+02  2.5158697631127575e+02  2.5161838071992332e+02  2.5163673160856541e+02  2.5166941581254403e+02  2.5171810029718506e+02  2.5176413692142199e+02  2.5180123677364628e+02  2.5183527341083987e+02  2.5188058447916640e+02  2.5193425434008873e+02  2.5199741006756102e+02  2.5206462487210695e+02  2.5212453528150920e+02  2.5221233083917247e+02  2.5230516432230718e+02  2.5238584050055931e+02  2.5247359055486413e+02  2.5257064446567796e+02  2.5266575073844191e+02  2.5276805910121755e+02  2.5288709587198821e+02  2.5300566340020194e+02  2.5311486360799006e+02  2.5321558704959207e+02  2.5336026537164776e+02  2.5353931181742925e+02  2.5370777397686271e+02  2.5386370877634545e+02  2.5399223359191311e+02  2.5413260906612209e+02  2.5428418282815355e+02  2.5443754075818066e+02  2.5457645751251559e+02  2.5470484868455378e+02  2.5489374099683300e+02  2.5508075735197286e+02  2.5524492888831273e+02  2.5542926532148709e+02  2.5562036427959464e+02  2.5581560791972836e+02  2.5597793845519396e+02  2.5609523346204281e+02  2.5618244175694201e+02  2.5627540910210985e+02  2.5636919563368588e+02  2.5647999659331020e+02  2.5660250562833687e+02  2.5673356690349704e+02  2.5688757077119573e+02  2.5709598253171254e+02  2.5734401803775665e+02  2.5768716434905230e+02  2.5804087475611010e+02  2.5828842119984216e+02  2.5858270499749278e+02  2.5891408036768456e+02  2.5928905942678267e+02  2.5967597290566505e+02  2.5056862043202017e+02  1.5434990508599736e+02  8.7947793176128926e+01  5.1322182886264834e+01  8.1620031206754675e+01  9.4877382183620441e+01  4.9733478141282184e+01  6.2412183682688365e+01  2.1747822264881069e+01  4.3712772148230563e+01  9.2146525554743206e+01  1.5869267856605748e+02  7.0608533226948325e+01  2.4629854475426349e+01  3.3423856935869189e+01  1.3340191350272903e+02  1.4463101194213277e+02  6.1430082106787815e+01  8.9587321013464361e+01  8.1250944801933656e+01  6.7298729609314478e+01  9.7881651271407407e+01  1.6255704955862990e+02  2.5150585233411738e+02  2.6019335615073379e+02  2.5999011316414999e+02  2.5969021451728804e+02  2.5941692054855514e+02  2.5917271587415632e+02  2.5885558691176959e+02  2.5853084530269439e+02  2.5828266691157285e+02  2.5794688411862808e+02  2.5761643367971237e+02  2.5731383050325837e+02  2.5706872734600540e+02  2.5691293198329510e+02  2.5670741245249923e+02  2.5648954859841012e+02  2.5637472941837058e+02  2.5620764724230111e+02  2.5604453756804725e+02  2.5585301349495603e+02  2.5566216801108504e+02  2.5547856766108643e+02  2.5532026071011194e+02  2.5519245569959938e+02  2.5504691642371290e+02  2.5488675643960349e+02  2.5472461967604940e+02  2.5456978059241396e+02  2.5441122534917287e+02  2.5426279606706737e+02  2.5412188562413971e+02  2.5396493004735223e+02  2.5379665907168595e+02  2.5360336891134813e+02  2.5343991372348287e+02  2.5331643846756521e+02  2.5319502996291945e+02  2.5307149662329545e+02  2.5295901496008861e+02  2.5285480379906616e+02  2.5274314996620222e+02  2.5265164553426189e+02  2.5257539801557442e+02  2.5252124219761379e+02  2.5247182808615437e+02  2.5240351329008320e+02  2.5234669216416711e+02  2.5231561704491224e+02  2.5228944345360560e+02  2.5226219265407005e+02  2.5224284351083494e+02  2.5220948126399327e+02  2.5218815575157967e+02  2.5217969164632447e+02  2.5217022367630614e+02  2.5215254763253736e+02  2.5215694169998562e+02  2.5213847159453380e+02  2.5210492399415890e+02  2.5206555253932854e+02  2.5202709673503492e+02  2.5198167867731533e+02  2.5193132701732253e+02  2.5190003729061453e+02  2.5186807883042007e+02  2.5183937176475087e+02  2.5179802987252162e+02  2.5175825011520234e+02  2.5173460422462779e+02  2.5171643109990526e+02  2.5169992751438275e+02  2.5167543470449505e+02  2.5163900793213236e+02  2.5158354812619245e+02  2.5152490898957737e+02  2.5205951111096488e+02  2.5278603354766295e+02  2.5381887837849868e+02  2.5499185900300188e+02  2.5614645931452912e+02  2.5689326564656960e+02  2.5223337943789204e+02  2.5958508571197552e+02  2.5203684000785927e+02  2.5177188171890822e+02  2.5237770400230164e+02  2.5335843100066322e+02  2.5312859356648178e+02  2.5462323294999999e+02  2.5419394714913577e+02  2.5193077879752707e+02  2.5553442077707842e+02  2.5570940556713288e+02  2.5822607725791613e+02  2.5284253541802258e+02  2.5265291209057739e+02  2.5638665619384881e+02  2.5184345133789887e+02  2.5222687505502819e+02  2.5470993689104398e+02  2.5404107043081001e+02  2.5654002923155366e+02  2.5357905194339270e+02  2.5209299403271945e+02  2.5764460817655129e+02  2.5242732934377150e+02  2.5517667786591494e+02  2.6010659827566133e+02  2.5604313472014871e+02  2.5179978005272062e+02  2.5328120010985256e+02  2.6002597560632711e+02  2.5878630561052603e+02  2.5206468758603125e+02  2.5681386528389027e+02  2.5618419870206174e+02  2.5165693791557226e+02  2.5734302926642300e+02  2.5937787305816801e+02  2.5563535976667606e+02  2.5237328387751108e+02  2.5450237244117551e+02  2.5208689629712876e+02  2.5201480338905287e+02  2.5191289189515342e+02  2.5319510591043073e+02  2.5256961923062107e+02  2.5220132996961081e+02  2.5188894964592563e+02  2.6060931123104405e+02  2.5217988122665264e+02  2.5172319874045101e+02  2.5258265594365952e+02  2.5256764312462317e+02  2.5292049828898354e+02  2.5372293332272761e+02  2.5302275335511428e+02  2.5282864519156499e+02  2.5450573773468153e+02  2.5637015277485216e+02  2.5421149184651506e+02  2.5362812971337397e+02  2.5239730746549952e+02  2.5507459267058852e+02  2.5322533862688351e+02  2.5222818976258287e+02  2.5345083841902459e+02  2.5493314178933954e+02  2.5416640868273555e+02  2.5388501875260491e+02  2.5410928570504620e+02  2.5517483925222226e+02  2.5459498651211538e+02  2.5624815938174635e+02  2.5566381951182697e+02  2.5597987090307370e+02  2.5186588422913661e+02  2.5187654142030351e+02  2.5488123782285183e+02  2.5532996607864530e+02  2.5587013478837906e+02  2.5171239774096699e+02  2.5211632733633797e+02  2.5195328972262857e+02  2.5209343795182289e+02  2.5602782621950786e+02  2.5550292349896762e+02  2.5887104279287439e+02  2.5750750569395910e+02  2.5805433299977614e+02  2.5695588901854489e+02  2.5255958711902406e+02  2.5303504883924126e+02  2.5295526427750221e+02  2.5650748577513718e+02  2.5218013467430180e+02  2.5622944694103717e+02  2.5720631543228626e+02  2.5975795375983927e+02  2.5938033107325890e+02  2.5648719982748582e+02  2.5243591875618284e+02  2.5627023712570804e+02  2.6028948170549182e+02  2.5225509960676172e+02  2.5377701513231258e+02  2.2293608125269546e+02  2.5220435463014823e+02  2.5661963186562906e+02  2.5185758055567646e+02  2.5173705025435760e+02  2.5682822866560804e+02  2.5195289422626030e+02  2.5350087080778786e+02  2.5231583172708613e+02  2.5451783880511405e+02  2.5207829930547712e+02  2.5230180803051815e+02  2.5825302715700263e+02  2.5420680519547008e+02  2.5814602492741142e+02  2.5706949813825548e+02  2.5166239674895209e+02  2.5194716883924426e+02  2.5322069801467683e+02  2.5197799708610816e+02  2.5236787183171904e+02  2.5211861232655397e+02  2.5208860706232389e+02  2.5351745296056626e+02  2.5531518473182450e+02  2.5221855563718805e+02  2.5725095087490723e+02  2.5201661140573077e+02  2.5255876786037049e+02  2.5439110779559559e+02  2.5979605125405931e+02  2.5155645581686164e+02  2.5389126331056008e+02  2.5259397790388471e+02  2.5872660125486556e+02  2.5275585378487995e+02  2.5302632212285826e+02  2.5201727440096397e+02  2.5274701716063984e+02  2.5668108237405465e+02  2.5174623022556747e+02  2.5960781845862925e+02  2.5519748108149068e+02  2.5176945805794134e+02  2.5178283182197922e+02  2.5479249518334964e+02  2.5238344592640735e+02  2.5331832552287071e+02  2.5316146091666752e+02  2.5608608977049965e+02  2.5216439580058946e+02  2.5180711639287819e+02  2.5491621611363158e+02  2.5294318981914540e+02  2.5302637990957578e+02  2.5662592702686374e+02  2.5389063816543765e+02  2.5170617575498801e+02  2.5372964089198189e+02  2.5581587032014971e+02  2.5355630027305403e+02  2.5622612614581118e+02  2.5242280854388247e+02  2.5197991911968018e+02  2.5207882265113335e+02  2.5477394496823226e+02  2.5542288288675809e+02  2.5280586822941297e+02  2.5913210024098123e+02  2.5239582752127916e+02  2.5590322974925417e+02  2.5177589049382527e+02  2.5777699259228626e+02  2.5251633709229742e+02  2.5425422579539600e+02  2.5434291342102284e+02  2.5879991769519052e+02  2.5694942037505018e+02  2.5527471865327485e+02  2.5604649485590829e+02  2.5339186034921687e+02  2.5397441204034487e+02  2.5206743196195941e+02  2.5767010762536177e+02  2.5637123518512470e+02  2.5766865068085599e+02  2.5267779141546123e+02  2.5195732968203419e+02  2.5720401048153144e+02  2.5548853044336460e+02  2.5206162978728020e+02  2.5192421997525824e+02  2.5212035553403990e+02  2.3537458259043564e+02  2.6030098715811215e+02  2.5560082438253042e+02  2.5934511728651404e+02  2.5598451246555766e+02  2.5883469878398154e+02  2.5310322707958275e+02  2.5399500159252389e+02  2.5217108150736718e+02  2.5464307741860472e+02  2.6004959075722968e+02  2.5162960375867715e+02  2.5248002773304063e+02  2.5937185417707417e+02  2.5186288153013999e+02  2.5471240763858830e+02  2.5440326108128070e+02  2.5486878417423361e+02  2.5271965139433442e+02  2.5239395056411630e+02  2.5470165948309534e+02  2.5406629818019917e+02  2.5984866804896205e+02  2.6016983460820825e+02  2.5313380768590537e+02  2.5250445650495868e+02  2.5199483360606365e+02  2.5924872082271423e+02  2.5522083217174708e+02  2.5298849301935286e+02  2.5185571774809011e+02  2.5226522228856462e+02  2.5339708365957699e+02  2.5229039248325739e+02  2.5373655285834488e+02  2.5273260230769304e+02  2.5161330099583506e+02  2.5212767980818296e+02  2.5409906092804309e+02  2.5275459805907991e+02  2.5219618667646492e+02  2.5680378818824244e+02  2.5169491128095615e+02  2.5655196850716652e+02  2.5193100356116690e+02  2.5626921235570910e+02  2.5186623453336583e+02  2.5187173034490306e+02  2.5275511200210786e+02  2.5220625110357520e+02  2.5668624167837419e+02  2.5252394867594842e+02  2.5575233212606267e+02  2.5626646440393807e+02  2.5177589213453453e+02  2.4937875815375506e+02  2.5634603564994302e+02  2.5445140844038292e+02  2.5536681057549876e+02  2.5216950498885004e+02  2.5642723756397174e+02  2.5570458776619665e+02  2.5327788776792070e+02  2.5317275502993317e+02  2.5355090992115632e+02  2.5299408399120222e+02  2.5170646012287250e+02  2.5299904245987759e+02  2.5728466352766685e+02  2.5492238601164979e+02  2.5333030030786443e+02  2.5231908081234022e+02  2.5847965880361511e+02  2.5513887418152910e+02  2.5203019295498407e+02  2.5646259631465790e+02  2.5422379403765615e+02  2.5371586077064711e+02  2.5589168784116060e+02  2.5288110631281990e+02  2.5506697634679108e+02  2.5333116177061598e+02  2.5505073359300096e+02  2.5229939372875765e+02  2.5286170675584793e+02  2.5540299944380024e+02  2.5197159602597759e+02  2.5278226721582624e+02  2.5534330431244643e+02  2.5405999673377067e+02  2.5557244279803518e+02  2.5246612738881640e+02  2.5340002737742560e+02  2.5827767556558609e+02  2.5444435885586324e+02  2.5677269221102836e+02  2.5229015613147106e+02  2.5446266934504854e+02  2.5351394749966195e+02  2.5189401313563002e+02  2.5392684516793091e+02  2.5505206352866745e+02  2.5366166349320014e+02  2.5233501779427132e+02  2.5370129585930229e+02  2.5355918698437955e+02  2.5580848518321216e+02  2.5200805357559855e+02  2.5218009037786101e+02  2.5635717498355257e+02  2.5628198630873766e+02  2.5996390020298003e+02  2.5380805514134889e+02  2.5390174647799381e+02  2.5429940171459407e+02  2.5636424029858927e+02  2.5325346505360116e+02  2.5408174635724157e+02  2.5210920209067572e+02  2.5487315055483799e+02  2.5191160307906284e+02  2.5168215706257755e+02  2.5707265921382890e+02  2.5184805744430702e+02  2.5291231659373918e+02  2.5614877995312401e+02  2.5616745931891239e+02  2.5769922126455015e+02  2.5215377522493475e+02  2.5459889364073774e+02  2.5864228874050548e+02  2.5719185880743834e+02  2.5204043962677679e+02  2.5193693944835744e+02  2.5166210584804048e+02  2.5260614514369115e+02  2.5261702196894893e+02  2.5226539790889117e+02  2.5263595752015146e+02  2.5628614564489857e+02  2.5610004352919702e+02  2.5225658635428195e+02  2.5286334156007709e+02  2.5318265623300428e+02  2.5672610374052067e+02  2.5246586349469220e+02  2.5472512063790217e+02  2.5214651048091952e+02  2.5269585725092693e+02  2.5589321064761123e+02  2.5959837758200348e+02  2.5181331068548266e+02  2.5619148462027533e+02  2.5506282782566515e+02  2.5196379341130753e+02  2.5190494831612060e+02  2.5215394372057312e+02  2.5842988493864652e+02  2.5183262628999998e+02  2.5913393654518671e+02  2.5419754265519350e+02  2.5264476175261541e+02  2.5566356173487895e+02  2.5180937096532421e+02  2.5857892928144622e+02  2.5565438250626897e+02  2.5148766290061792e+02  2.5601108292536981e+02  2.3703784916024622e+02  2.4545145739659375e+02  2.5215134503854586e+02  2.5634470385301859e+02  2.5321029522838739e+02  2.5908265995371573e+02  2.5791355678655191e+02  2.5181784976288964e+02  2.5632415129743805e+02  2.5182500295644263e+02  2.5532165325472192e+02  2.5206962863588674e+02  2.5249492411090714e+02  2.5470184147750820e+02  2.5216123466690976e+02  2.5702081616114879e+02  2.5315063706409160e+02  1.8300351361331542e+02  2.5213394764270748e+02  2.5725166292009482e+02  2.5736440136496071e+02  2.5171928910050374e+02  2.5458564969391185e+02  2.5742558180144169e+02  2.5176098262422138e+02  2.5616595699821193e+02  2.5221259230631233e+02  2.5237439556184262e+02  2.5346608269526200e+02  2.5574623756104927e+02  2.5810868982533043e+02  2.5227011486316573e+02  2.5214161350325409e+02  2.5192059708527614e+02  2.5302948449384508e+02  2.5772514565149481e+02  2.5207038736577761e+02  2.5263991907432762e+02  2.6044035336206775e+02  2.5588665335500022e+02  2.5282853911823341e+02  2.5235415316329249e+02  2.5355550081020826e+02  2.5552405846413686e+02  2.5449251281813838e+02  2.5954703179540667e+02  2.5201837381224829e+02  2.5651378845233552e+02  2.5671486237033514e+02  2.5929078587762484e+02  2.5176803061990279e+02  2.5296268590101801e+02  2.5997287910812940e+02  2.5198777759005210e+02  2.5611215587416092e+02  2.5841294541105026e+02  2.5374668977307738e+02  2.5245180573113220e+02  2.5180220094428458e+02  2.5225170797633859e+02  2.5704967938388103e+02  2.5195111481363975e+02  2.5668249609158875e+02  2.5804059689390692e+02  2.3218754602006692e+02  2.5265486420484271e+02  2.5421552818341084e+02  2.5967009141162674e+02  2.5618484621240407e+02  2.5415769778839532e+02  2.4183276549545192e+02  2.5200555019358663e+02  2.5201721896385294e+02  2.5375717488513831e+02  2.5204799329791283e+02  2.5643489320114088e+02  2.5249968294595624e+02  2.5947414043982138e+02  2.4206346823604852e+02  2.5555763319280413e+02  2.5203665433463999e+02  2.5214412575268707e+02  2.5167526688838583e+02  2.5616218586442977e+02  2.5478691196431018e+02  2.5786138779995900e+02  2.5247616977883632e+02  2.5203825997358888e+02  2.5180480972956497e+02  2.5227888763062015e+02  2.5668953263684944e+02  2.5310888156327098e+02  2.6033984735654315e+02  2.5633821257920812e+02  2.5694402373239859e+02  2.5664451259221113e+02  2.5172955679277285e+02  2.5211580659042696e+02  2.5248456742128050e+02  2.5402424852539932e+02  2.5398745912469471e+02  2.5235538224975500e+02  2.5321707125658847e+02  2.5487745026914547e+02  2.5337222838451336e+02  2.5498837680202899e+02  2.5187673210483470e+02  2.5388779476338345e+02  2.5358834675790840e+02  2.5897144466447344e+02  2.5207758635054051e+02  2.5170332641818146e+02  2.5462131069940079e+02  2.5285525237840744e+02  2.5549590614298637e+02  2.5476397357739737e+02  2.5975611927240408e+02  2.5163081527093405e+02  2.5183207287264685e+02  2.5234807136640461e+02  2.5234581245058791e+02  2.5201409845349374e+02  2.5650717189618251e+02  2.3392236023924795e+02  2.5392776108980473e+02  2.5264121310537132e+02  2.5197069031929553e+02  2.5225036216527278e+02  2.5809367424527471e+02  2.5162643555185579e+02  2.5191157945049235e+02  2.5167627134888338e+02  2.5157921833414645e+02  2.5332774711067808e+02  2.5395376521036815e+02  2.5489243774066293e+02  2.5441225610722657e+02  2.5646171489216601e+02  2.5801515965290685e+02  2.5714694003874217e+02  2.5494746780228053e+02  2.5604199767361143e+02  2.5442747780909008e+02  2.5173286368018694e+02  2.5856340924424961e+02  2.5189626005401476e+02  2.5904644213690904e+02  2.5425085417732180e+02  2.6037637011411891e+02  2.5431411406362014e+02  2.5907647159299319e+02  2.5189993599563692e+02  2.5170011692499929e+02  2.5531392547121527e+02  2.5189079031406195e+02  2.5486532201881536e+02  2.5904582612511183e+02  2.5209767868794975e+02  2.5240270021117959e+02  2.5503846616137011e+02  2.5957046621359700e+02  2.5948968469709416e+02  2.5178820688219713e+02  2.5306996296876608e+02  1.7372464405649083e+02  2.5518505677813081e+02  2.5539482151853065e+02  2.5960201153519938e+02  2.5725752124386588e+02  2.5691623866024469e+02  2.5435967310445054e+02  2.5591909564498178e+02  2.5212685943215257e+02  2.5222071553840937e+02  2.5207094592214537e+02  2.5169973984710774e+02  2.5989168889569828e+02  2.5406399644455223e+02  2.5420828202301172e+02  2.5409052873889505e+02  2.5206888938007035e+02  2.5206946112825236e+02  2.5346451755007206e+02  1.9382717419610438e+02  2.5262435315346971e+02  2.5191857783362423e+02  2.5161659606130124e+02  2.5169462567267752e+02  2.5241348560706504e+02  2.5242156286121701e+02  2.5188362816777976e+02  2.6012902154101323e+02  2.5305583169041327e+02  2.5174656364659029e+02  2.5225534819771573e+02  2.5651869472388307e+02  2.5214317234680007e+02  2.5155541780438517e+02  2.5591948491766638e+02  2.5526607757956441e+02  2.5190795957466383e+02  2.5482584055706681e+02  2.1739937896388494e+02  2.5226753886592027e+02  2.5195505320339308e+02  2.5750191202886339e+02  2.5434496049642101e+02  2.5295644621977209e+02  2.5192768059925191e+02  2.5351383755451110e+02  2.5230542690294362e+02  2.5517089381016507e+02  2.5318593386119912e+02  2.5348724603395323e+02  2.5446735312558928e+02  2.5605848050823317e+02  2.5224573734440361e+02  2.5340236517969996e+02  2.5251726165436912e+02  2.6013006568036332e+02  2.5921677509314117e+02  2.5711291728598752e+02  2.5214987513847979e+02  2.5385441131280902e+02  2.5573902225545586e+02  2.5985146551375362e+02  2.5289335269343539e+02  2.5661619415157787e+02  2.5201152026153545e+02  2.5172660308224420e+02  2.5950377981229832e+02  2.5278069999905568e+02  2.5312778743267862e+02  2.5214214317587312e+02  2.5198359510728977e+02  2.5328028825391451e+02  1.7439953215768676e+02  2.5233886644104962e+02  2.5454849014644623e+02  2.5680206819457504e+02  2.5217440756066577e+02  2.5202319910939923e+02  2.5245644073276259e+02  2.5532041192939198e+02  2.5522837843000156e+02  2.5221346245316028e+02  2.5285565626734433e+02  2.5985330912872274e+02  2.5467055496080789e+02  2.5308908868677864e+02  2.5278919004200205e+02  2.5575699150250233e+02  2.5641188988659661e+02  2.5255129632578681e+02  2.5247680761520479e+02  2.5215211438183104e+02  2.5265259675156355e+02  2.5266762974160693e+02  2.5301660354402446e+02  2.5518308003387162e+02  2.5274930201034621e+02  2.5287014521242119e+02  2.5309626917704713e+02  2.5473179626348380e+02  2.5345096272245416e+02  2.5365321742060584e+02  2.5904241256595111e+02  2.5836220312818978e+02  2.5289518250507871e+02  2.5219943682674619e+02  2.5267659199932493e+02  2.5183949352659516e+02  2.5667023640204661e+02  2.5176398332859372e+02  2.5547342874491139e+02  2.5344347535895895e+02  2.5283260363586402e+02  2.5679445301804452e+02  2.5588077379444059e+02  2.5174409153638334e+02  2.5746211966195051e+02  2.5578696494052588e+02  2.5505737736349917e+02  2.5212410838298752e+02  2.5355618522920861e+02  2.6019246478352761e+02  2.5637923176897249e+02  2.5600331594377508e+02  2.5216708147411245e+02  2.5323479872905966e+02  2.5306295003638732e+02  2.5409905315290510e+02  2.5295078857917994e+02  2.5917021928094471e+02  2.5421910908665973e+02  2.5840431709019367e+02  2.5257568260177928e+02  2.5739952877101297e