<?xml version="1.0"?>
<VTKFile type="UnstructuredGrid"  version="0.1"  >
<UnstructuredGrid>
<Piece  NumberOfPoints="1326" NumberOfCells="2490">
<Points>
<DataArray  type="Float64"  NumberOfComponents="3"  format="ascii">96603.34473994371 -2526306.047878345 0  94860.60104826238 -2521555.331840433 0  89916.18910953001 -2520321.892021782 0  84854.43317180585 -2519718.168215757 0  80314.61977464544 -2517524.417362525 0  76867.98081799694 -2513782.62138356 0  73622.28534584872 -2509858.15374663 0  69467.76628603124 -2506905.752812294 0  64799.63770779336 -2504929.879423514 0  59904.00628883143 -2503518.991897912 0  54853.4132252968 -2502818.502159722 0  49865.74266884173 -2501759.910851945 0  44902.29624028521 -2500587.726242681 0  39988.84419425165 -2499231.836848111 0  35326.06195241294 -2497171.562334582 0  30732.67892640584 -2494955.941541187 0  26188.37022064427 -2492651.666400339 0  21142.71118526055 -2492465.484781222 0  16073.49686451788 -2492476.534328528 0  11249.88497984429 -2490838.458115397 0  6275.636893040417 -2490143.933823594 0  1193.806478562084 -2490412.748797283 0  -3902.046734771465 -2490268.82376175 0  -8998.502509635846 -2490140.206190224 0  -14087.98843244329 -2490311.920017995 0  -19072.76501559985 -2489258.985501559 0  -24134.22051119845 -2488749.415787704 0  -29207.87057342275 -2488375.066351614 0  -34218.08627631886 -2487427.008901847 0  -39189.23133703125 -2486293.710699708 0  -44152.12914232024 -2485122.28931942 0  -48942.15893786328 -2483379.377937937 0  -53492.16616988417 -2481090.28494475 0  -57855.96717375102 -2478455.312193218 0  -62193.35327696647 -2475777.256655459 0  -66734.7217609587 -2473473.07162704 0  -71629.44360672109 -2472062.354387843 0  -76605.42762672834 -2470968.125447943 0  -81687.42440416579 -2470552.439740983 0  -86588.87327080002 -2469195.6250539 0  -91342.29161834823 -2467367.081011288 0  -96385.91209299464 -2466668.227104886 0  -101474.8629163414 -2466882.545448536 0  -106540.8187674373 -2467455.112498367 0  -111624.4708969785 -2467139.131912842 0  -116583.0937090509 -2465966.5534783 0  -121580.017949441 -2464949.548308367 0  -126623.4433166535 -2464245.167141903 0  -131604.9070930343 -2465247.848534836 0  -136683.2389090839 -2465610.680536482 0  -141754.1121788068 -2466091.929756206 0  -146766.9278916852 -2467023.421123319 0  -151832.3344478887 -2467614.947838792 0  -156729.8631253032 -2468963.099225741 0  -161356.8679126435 -2471087.126636002 0  -166344.9130535806 -2472132.098533388 0  -171205.4000231276 -2473668.170313003 0  -175690.4815660599 -2475925.881551192 0  -180782.077071478 -2476186.282570609 0  -185820.219698279 -2476962.888174891 0  -190885.1761619994 -2477486.238486874 0  -195958.718485464 -2477070.777123353 0  -200770.3899254332 -2475408.279856857 0  -205546.8692873479 -2473627.530664755 0  -209925 -2476425.000000183 0  -213925 -2479425.000000258 0  -214924.9999997705 -2484425 0  -217925 -2488425.000000178 0  -222925 -2488425.000000206 0  -227924.9999996851 -2490425 0  -232925 -2490425.000000743 0  -230925 -2495424.999999744 0  -225925 -2496424.999999752 0  -220925 -2497424.99999979 0  -225925 -2499425.000000353 0  -229924.9999995978 -2503425 0  -226925 -2508424.999999596 0  -221925 -2507424.9999998 0  -218924.9999997628 -2511425 0  -221925 -2515425.000000849 0  -219925 -2520424.999999252 0  -217924.9999997316 -2525425 0  -215924.9999997395 -2530425 0  -210925 -2534424.999999748 0  -207695.1762873305 -2538283.331010084 0  -202610.003292264 -2538557.326950263 0  -197551.2812357417 -2537962.352403814 0  -192586.7846688663 -2536802.202322438 0  -187886.3172509225 -2534838.659802383 0  -183067.9131816343 -2533373.075319428 0  -178006.5944919084 -2533348.025387061 0  -173096.3206111284 -2531971.089245703 0  -168154.4707244109 -2530728.400061458 0  -163065.2698403882 -2530423.147888537 0  -157987.7112299006 -2529949.671118056 0  -152890.9759372371 -2529787.855613952 0  -147791.9733645757 -2529884.250588803 0  -142723.2074055563 -2530354.997525746 0  -137890.6974745849 -2531977.703025593 0  -133045.6363466379 -2533563.235953474 0  -128109.5141690132 -2534819.603032706 0  -123908.5019986107 -2537684.70852565 0  -119365.8295432994 -2539988.257521542 0  -114618.1583481154 -2541821.659205975 0  -109604.147847917 -2542748.549401302 0  -104673.4556643177 -2544050.222444715 0  -99756.96429482895 -2545405.251973982 0  -94980.03930230324 -2547139.405420877 0  -90676.52903421161 -2549871.7549917 0  -86164.59726942258 -2552248.345338716 0  -81544.12962656711 -2554395.380522063 0  -76695.18525800858 -2555973.931655067 0  -71996.71883487799 -2557946.594544498 0  -67378.42867831457 -2560105.995067715 0  -62512.92023756374 -2561619.149394813 0  -57632.87923718365 -2563067.6042289 0  -53448.17374070523 -2565936.805034175 0  -49357.19710917832 -2568949.800581331 0  -44747.76575842882 -2571125.049501965 0  -39936.56202196161 -2572815.140052464 0  -35043.49595267572 -2574251.778992833 0  -30186.85583324296 -2575807.108651876 0  -25441.46162825862 -2577673.834227397 0  -20483.48359734264 -2578824.060273113 0  -15445.91612176793 -2579584.499333627 0  -10444.76618652894 -2580522.821899309 0  -5380.097898548018 -2581011.015809262 0  -501.9441734893476 -2582491.274790911 0  3947.669904813003 -2584956.055854702 0  8360.564558078528 -2587486.156477657 0  13237.81566230644 -2588966.755225136 0  17930.75104168088 -2590921.070110867 0  21771.92334622858 -2594204.738500396 0  25002.74283675226 -2598144.263784821 0  28471.2067548034 -2601878.28276416 0  31805.69611113194 -2605718.553501856 0  35848.36394223652 -2608815.389500747 0  39032.55688861636 -2612797.168149744 0  42297.65455396404 -2616714.2500949 0  45587.40098337106 -2620611.195181062 0  48516.03213121062 -2624756.254407449 0  53165.60184108299 -2621282.616958878 0  55441.3416945093 -2616320.54187789 0  57717.08154793562 -2611358.466796902 0  59992.82140136193 -2606396.391715914 0  62268.56125478825 -2601434.316634926 0  64544.30110821456 -2596472.241553938 0  66820.04096164089 -2591510.16647295 0  69095.78081506719 -2586548.091391962 0  71371.52066849351 -2581586.016310974 0  73647.26052191983 -2576623.941229985 0  75923.00037534614 -2571661.866148997 0  78198.74022877245 -2566699.791068009 0  80474.48008219877 -2561737.715987021 0  82750.21993562509 -2556775.640906033 0  85025.95978905141 -2551813.565825044 0  87301.69964247772 -2546851.490744056 0  89577.43949590404 -2541889.415663068 0  91853.17934933034 -2536927.34058208 0  94128.91920275666 -2531965.265501092 0  34167.66165435265 -2546010.433809835 0  -9702.44596617426 -2535485.11809032 0  -48014.98508742747 -2525481.436887715 0  -83920.20274467496 -2509611.945131382 0  -117339.7306085182 -2500587.117934454 0  -148600.7656580886 -2498440.109940145 0  17408.22070543401 -2521371.212968104 0  -190949.6955696386 -2505985.407902659 0  42673.26298168127 -2573919.255139432 0  61304.33950744537 -2537220.937316896 0  7919.86000545044 -2556229.22377694 0  -32917.06887426249 -2547666.220837255 0  -24177.58586678513 -2514252.468008148 0  -71888.88373671086 -2531428.351180482 0  -60497.16818017218 -2504407.969669783 0  40440.0482385106 -2523974.848810697 0  -97452.83857325287 -2490530.958170839 0  -104443.4738236792 -2520892.582661391 0  -168513.7367793184 -2508027.41121581 0  -14002.18983097047 -2557774.877745125 0  -2740.292503471683 -2512201.793152541 0  -132419.7046597875 -2486056.575529079 0  58568.42326537703 -2559188.948041691 0  22735.27249627505 -2570393.312579918 0  -75802.6532880555 -2491519.370259468 0  -55270.54021977298 -2543843.424948696 0  -134873.8069341509 -2513339.541968158 0  -41054.61206037777 -2505263.234137338 0  44395.12047769513 -2592445.165300565 0  -165120.3519070242 -2490389.61498888 0  8197.214592936049 -2538048.420331754 0  -89519.7109657035 -2530254.010156752 0  -201164.1189831511 -2521120.549378251 0  -113384.186674389 -2484300.165916822 0  57601.94746743792 -2520797.677585155 0  -30808.03856426448 -2529059.458406818 0  -200770.3654249554 -2492795.506416648 0  -181081.3349783963 -2492764.999299677 0  29000.01345251895 -2512665.833809018 0  -149074.5838038852 -2484003.741694783 0  -120311.6764027861 -2520591.374245398 0  75733.38804798923 -2532799.242834303 0  -153769.0901489208 -2513970.643377138 0  -181064.6123605132 -2517968.587424158 0  -99319.61109373288 -2504820.405269538 0  11680.60204608414 -2507440.947016951 0  -70156.41415356193 -2516247.207298845 0  27972.15966634774 -2532403.837121567 0  42332.79454975695 -2558857.86041379 0  46337.40143903706 -2537279.481288429 0  -28451.3510131154 -2561013.040837472 0  -2186.017636991198 -2566435.945371256 0  22580.49303807972 -2555991.810800608 0  58020.61661375119 -2574269.640485225 0  -205559.3530791283 -2506260.629863092 0  30919.34842734508 -2582716.810324717 0  69670.33374598324 -2549551.095131685 0  -3145.578006897069 -2547956.769847158 0  1009.428156626846 -2525871.08425747 0  -14633.5324062812 -2504632.523236577 0  -46051.06296108647 -2554321.128514116 0  -19648.53003898157 -2544837.755953503 0  -11834.03953960044 -2521219.650733941 0  -68467.62054762521 -2544082.89475151 0  -131248.8785105995 -2499518.155964629 0  -61998.43689416378 -2491615.760497082 0  -42604.09188429508 -2537412.364552005 0  9373.129040207479 -2572769.444633647 0  -85943.7353653918 -2483137.848826976 0  -28351.30068705606 -2501568.69138444 0  20329.45232180002 -2542806.702733155 0  -37103.4986048183 -2517491.683723277 0  -81431.70818491573 -2540189.326198373 0  -58832.76358060582 -2531418.440981773 0  -50523.14080998801 -2496235.008103674 0  -57535.74948273573 -2516684.044058037 0  -87709.61892097599 -2497560.781252217 0  -73213.58833436994 -2503891.954745851 0  -122870.7356247092 -2477790.453912621 0  -101693.4176978432 -2479247.688806427 0  -112511.8665092294 -2530164.40746855 0  53261.22178745652 -2547767.871315125 0  46787.10650847246 -2513935.735884324 0  -80899.60619525104 -2521520.09769718 0  -92977.45261465941 -2518061.948357456 0  -106808.7100428131 -2496973.222943923 0  68625.91227505662 -2522706.334974116 0  32
[...]
<PointData  Scalars="f_44"> 
<DataArray  type="Float64"  Name="f_44"  format="ascii">-2.2799309609270333e+00  -2.6919780674362479e+00  -3.1466601981111313e+00  -2.8442003113047649e+00  -1.8977745303996825e+00  -1.4942703532224442e+00  -1.4863638870058147e+00  -1.6517586300748417e+00  -2.3426587732722171e+00  -2.8196506669839358e+00  -2.2091109390334100e+00  -6.1678650365109400e-01  4.8088679378254895e-01  1.3220637177029153e+00  2.4873713899029930e+00  3.4179659346147528e+00  4.3511600148166689e+00  4.4138538009536212e+00  4.4011159946372063e+00  3.9716817771224586e+00  4.0613221791917686e+00  4.4410117822837405e+00  5.1584096036334968e+00  5.5490211200828448e+00  5.7612067769682502e+00  6.2287773777521229e+00  5.8029832377536810e+00  4.3955413031830872e+00  4.7122004556614865e+00  6.2063051846231456e+00  7.5405353349886006e+00  8.8589414209668451e+00  9.0093271791225078e+00  9.2712592480211615e+00  9.9700634504805485e+00  9.7369898313219405e+00  6.9709072253715707e+00  5.5406371171954616e+00  3.3067081531843336e+00  6.3411311595323105e-01  -4.7840487266890186e-01  -1.4570340950299032e+00  -3.5180204472327667e+00  -5.2152666418476397e+00  -6.0189081648411094e+00  -8.2456295089048339e+00  -9.9098294614798803e+00  -1.0421631639865033e+01  -1.0189048309586472e+01  -7.9856636137503392e+00  -5.7937240540922978e+00  -4.2336536358692856e+00  -4.3754772139749516e+00  -4.6478846079817711e+00  -5.5045914698552130e+00  -8.0325632229897721e+00  -9.2640367722616155e+00  -9.9812045959018647e+00  -9.2810771227430333e+00  -9.1922948666213813e+00  -8.0984186335623907e+00  -5.1052260683789026e+00  -2.2666502650394742e+00  -3.5731606320090563e+00  -3.5250255202811580e+00  -2.4886348956623223e+00  7.4548700434209958e-01  -2.4322059100155675e+00  -3.4268029807132838e+00  -5.7074253616283075e+00  -3.0156104720761681e+00  -4.5807742341380981e+00  -8.4135817014252687e+00  -1.2080050272702877e+01  -3.3977485371313696e+00  -1.4076830991515272e+00  -3.7703909014660577e+00  -1.7485960680334085e+01  -5.8530354531529696e+01  -2.4388285660716498e+01  -5.5288836259594616e+00  4.1610716487592123e+00  -5.7537442674322481e+00  -7.4146214769558698e+00  -8.9095560659167461e+00  -2.3016632677443667e+01  -2.3291606106871573e+01  -1.2112905775170139e+01  -1.7610164442217457e+01  -1.6624653965164896e+01  -1.6096159726496623e+01  -1.6444442671228167e+01  -1.4740969450591336e+01  -1.2608170823267836e+01  -8.9319039369312918e+00  -1.8575585554283075e-01  6.1977817779644484e+00  9.4687068248060626e+00  1.2545098841483529e+01  1.4971866980246020e+01  1.8006820561972518e+01  1.9175211683002185e+01  1.7042178124071931e+01  1.5301058311042855e+01  1.3662073774727002e+01  1.3544962329815895e+01  1.4540014804542679e+01  1.5220703676654182e+01  1.6381914438736306e+01  1.7920288940262157e+01  1.7873049961293667e+01  1.6339653010842472e+01  1.4824693788166050e+01  1.3531518041771887e+01  1.1812812746670312e+01  1.1298916538311682e+01  1.1787056943565920e+01  1.2171416975056273e+01  1.1436152240109088e+01  1.0445329785124681e+01  1.0122079139752877e+01  1.0564810566617599e+01  1.1187952148909885e+01  1.0331524692187593e+01  8.1825737491302402e+00  7.4589648671473903e+00  6.7708454539006198e+00  5.9539246907276748e+00  4.6507781848391216e+00  3.6954835627776514e+00  3.0924775755889202e+00  2.9379923617991270e+00  2.7523580761378148e+00  2.0640806331685462e+00  1.7379145244107839e+00  1.0186305979186205e+00  5.7129240995796871e-01  -7.6366009064970042e-01  -1.5635098707684432e+00  -9.7716096513942174e-01  -1.0466991688942284e-01  7.1990181470763814e-01  3.2894994214524353e-01  -4.6591856553438737e-01  -2.8200323297367130e-01  -3.4793397074519611e-01  -5.4303117736020989e-01  -2.8057453987602216e-01  -7.7961313082606520e-01  -1.8186804978553766e+00  -2.0862301178053810e+00  -1.7492990994336268e+00  -1.5588885725808568e+00  -2.3666129253742434e+00  -4.0534144550952025e+00  -4.5012158843747079e+00  -4.0762522899192177e+00  -2.8212181855820604e+00  -2.4996482882063065e+00  -2.1938080620778915e+00  1.6550907640747907e+00  6.4611321824106600e+00  6.8706167462446608e+00  2.2817916484439396e-01  -3.8509409349719284e+00  1.6072105485766937e+00  3.0382311976900964e+00  -1.6219370831290185e+01  2.2115079897982413e+00  -1.6148168735816193e+00  3.4969444719400764e+00  9.8813446570137664e+00  9.0178536203737085e+00  7.5868504554735283e+00  6.5659949328115257e+00  6.6751590878107558e-01  -4.7285342806501429e+00  3.8241066662830621e+00  -6.3135624546039715e-01  7.5441828783172120e+00  6.1315377022372521e+00  -6.4170376862154352e+00  -1.9990461333482454e+00  3.7682909040780417e+00  6.6139089958658168e+00  8.9264685304551428e+00  1.2478132084574165e+01  8.5627449331372922e+00  -1.5082695568875413e+00  -1.0653417039903829e+01  5.2203985161697579e+00  3.7888802156733647e+00  -3.0004248120520607e+01  -8.8439553581951618e+00  -1.5084104027892067e+00  8.6616899122723545e+00  -1.6356884657736423e+01  -1.5014678666662411e+01  2.6354049635038788e+00  -6.7392953034330283e+00  1.1555772751820459e+01  -1.1962761857632116e+00  6.8044672724732038e+00  -1.7138099893511118e+01  -4.1746200113039160e+00  5.5331081144308580e+00  5.1283267732595688e+00  1.7724200006989441e+00  1.8889979611693701e+00  1.9820195557522067e+00  9.1803980423012330e+00  4.0037980031831726e+00  3.8926750351307433e+00  -1.4199599138639922e+00  -2.3766037768495817e+01  3.5057362167586188e+00  -2.4397185866861446e+00  4.6344193828442810e+00  4.9873235456795024e+00  5.8944529406053627e+00  1.0803988457984753e+01  8.0367981175025776e+00  5.1768932731363515e+00  1.0356298888902581e+01  6.5942684867950607e+00  5.6900788874728008e+00  9.7920853908669656e+00  4.9083712958809240e+00  1.5533163908427021e+00  6.7806495493117218e+00  3.5312091279234230e+00  8.0671581186259882e+00  9.6768311351473528e+00  8.8932097655765840e+00  6.3084565663792489e+00  6.0058583479397019e+00  8.5886676599085832e-01  6.2761116055425212e+00  -9.4661522236016449e+00  -4.9853865218040241e+00  1.3407808812308271e+01  -9.2151694200940304e-01  -4.1543900820702384e-01  3.9605393558438733e+00  3.2794792103929904e+00  -5.5954374993099947e+00  -1.3073176199528733e+00  1.9557972137504898e+00  -4.5288668142753924e-01  -3.0082150229328593e-02  1.3345696421905273e+00  8.0562203427171504e+00  -2.0024938693968373e+01  1.9142409409422361e+00  -8.6285197708046031e+00  1.0436195887742208e+01  5.4445014037645363e+00  7.3361438679747071e+00  8.9000891534920203e+00  -1.0143466134787646e+01  5.4747473148218244e+00  -5.9767472909692758e+00  -6.5362362777805441e+00  -1.4074462949870727e+01  -2.0455510059539385e+01  1.6175098800246445e+01  3.6459677821586154e+00  6.1733421882604755e+00  -5.4298503811045968e+00  4.6203499278170277e+00  7.1734297302684293e+00  -1.6764698239275948e+01  1.9389102499824467e+00  -7.1217977780966457e-01  -1.6774499970656960e+00  -2.0833001664661239e+00  1.3018036420476482e+01  8.1449297074365745e-01  1.0492462361020866e+01  4.0463683158284214e+00  7.8834531002768102e+00  1.2275909963292386e+00  3.0503352957318328e+00  -1.0889894934890323e+01  1.1916645443687539e+01  -9.8340682383058180e+00  -2.5700009344692663e+00  -9.5543726580191357e-01  1.4624302959713322e+00  9.4695664341019850e+00  1.4240673536481576e+00  4.0639093050459296e+00  2.2284597881795589e+00  1.8443940098824885e+00  7.7311599721464823e+00  -2.8118488464519595e+00  3.8637630548633219e+00  -4.1826734518576449e+00  2.8191895398570077e+00  4.5394228107041368e+00  7.1230287965937782e+00  -2.3841940851181043e+01  -2.1694505581985561e+00  7.0878101666534539e+00  5.8240598293695705e+00  -8.5101258959290309e+00  8.2300784447479636e+00  8.5725576471952820e+00  2.1008175755175845e-01  4.8843995931130415e+00  -5.0489503957769415e+00  -7.3991021613825547e-01  -2.2010284105837425e+01  7.1454715840735155e+00  -1.9293365195277914e+00  -2.2572188492985097e+00  6.2338647471238042e+00  5.0905059878243613e+00  8.8398151582530549e+00  8.7695980606261763e+00  -7.8382392113633204e+00  7.4963293235487005e-01  -1.6398926111040941e+00  5.2058262417593326e+00  6.6336651190540969e+00  6.6643973287302840e+00  7.2712048158482272e+00  8.4492665540814595e+00  -2.2307398804777776e+00  9.8483209182302254e+00  -6.6736766028987269e+00  8.5758154572759580e+00  1.9219383868504259e+01  3.5154202758980224e+00  2.7362108904521221e-01  2.4032479763126915e+00  1.4359271627658003e+01  3.4395640465434472e+00  5.5990471641592361e+00  -4.1560034397420239e+01  5.4260656769383724e+00  -4.5655867869727018e+00  -2.4834996969356924e+00  -9.9238417593564261e+00  5.7608764268612713e+00  8.7775710742046975e+00  5.8765713608306811e+00  -1.2769694046849104e+01  -5.9261056275341479e+00  -4.1785019315841998e-01  -7.3837581378872930e+00  9.1680077934401929e+00  1.1150418420531384e+01  4.5480935416325892e+00  -5.8718434054133315e+00  -1.3321382993643262e+01  3.6932547532154696e+00  4.4058246929708575e+00  1.3617007226661255e+00  6.7946083989406958e+00  -3.0368189994467421e+00  2.2164857139420819e+00  7.7752397195688872e-01  2.3980049834845136e+00  7.8073512621146479e+00  -1.9744587084891907e+00  -1.1974696947969021e-01  -3.0626637550049917e+01  8.4925405251234878e+00  -1.1016598742662504e+01  6.9152626940222781e+00  8.6715463268956086e+00  1.5665738303453867e+00  5.0951354494844452e+00  -1.5064627158457803e+01  -1.6411598220490449e+00  4.4416862136534121e+00  -5.0872905006670424e+00  -2.1607765781477388e+00  3.9817976131719881e+00  7.0074028953158187e+00  2.2643211502163609e+00  5.4106073850315068e+00  5.4995231426389140e+00  9.1284552232222627e+00  8.1007226590934778e+00  -1.1397078425010374e+01  -2.0863223324345931e+01  9.3800207831261204e+00  5.9283903600579375e+00  1.2046390523315389e+00  -1.9166901517813354e+01  1.7824745177562662e+00  7.7272562517677974e+00  -2.6649410046880295e-01  2.6113546530255407e+00  9.1141442556134731e+00  2.7722579414891975e+00  1.1049768559601585e+01  6.2060002087720081e+00  -1.0098372569701739e+00  -7.2489155069304367e-01  5.6920279651526720e+00  6.2343918470569708e+00  3.7641597495130825e+00  1.5954618751208752e+01  -9.6044825643193310e-01  -7.4246804498243550e+00  1.1867532236028560e+00  -8.0122210205062192e+00  -5.9549186042129387e-01  -1.0304419375189196e-01  6.7524837642169837e+00  5.3151266969830528e+00  -7.1758282870296819e+00  5.9523826370643445e+00  1.1675222565495098e+01  3.9838874375584616e+00  -3.6790754890212720e+00  2.0899313598077067e+00  1.3511114951535925e+01  1.3395172451678512e+01  -2.4259770818318285e+00  2.5394815745685166e+00  4.5237667760289507e-01  7.3787413667175219e+00  6.0383740259220779e+00  8.2301371676929875e+00  9.9968203416185304e+00  7.9820598863572716e+00  -1.5296133467534678e+00  7.1526899666573200e+00  2.9078557100937954e+00  5.5109635049887808e+00  8.8638326955925386e+00  3.9361998668071756e+00  1.9123458552840180e+00  1.4984684778565320e+00  6.0127003425162162e-01  1.0405602869942122e+01  8.6054457558214761e+00  7.6844604779532073e+00  -5.8281242642842850e+00  5.9231739972436390e+00  -6.2164994759973273e-02  9.2855285306567819e+00  2.8125179951034394e+00  5.7514356125912105e+00  5.9519314999241990e+00  1.0235707860200600e+01  2.8252866113842630e+00  5.6492984791563803e+00  2.2640050881754266e+00  6.3925551732727879e+00  -3.6444378020660047e+00  4.2855420921576162e+00  8.3578126286385288e+00  -9.5172887943561690e+00  8.2816227852333295e+00  -3.2291320444623466e+00  4.2391046829537080e+00  6.2090380683207984e+00  9.6608488790739599e+00  -3.2025494983598185e-01  1.1721154225323755e+01  1.2489006766815706e+01  7.0105196233840097e+00  3.5421022594616849e+00  6.8960060339171969e+00  7.5429152986314607e+00  -2.6917774647140451e+00  7.3065725514607038e-01  3.7233862971518015e+00  -1.0116228878497871e+01  -1.2605574448783477e+01  -1.3302403231027910e+01  9.1295306223939079e+00  6.9886871495731722e+00  5.4516859987577426e+00  1.9201830545018954e+01  1.0094747715725941e+01  8.0690073433884297e+00  2.6827651967879951e+00  4.6179488166324703e+00  1.5521684392506105e+00  -1.1162525281670146e+00  1.0880641355919101e+01  1.1939562168097326e-01  7.7735203408420857e+00  1.3024095980436474e+00  6.4110656119552036e+00  -5.5572836435679891e+00  3.2587876779066014e+00  6.9627573926986948e+00  -1.8937356197260875e+01  -1.0327677759703322e+00  3.9918845776927658e-01  4.0688543496663532e-01  -1.5645515574486135e+00  4.7146214432103406e+00  7.4886170630158713e+00  2.2553164076618648e+00  4.4656199652637945e+00  -5.4686359789642436e-01  1.8448008658637310e+01  3.0960881284456865e+00  8.8908269850748702e+00  8.3525704763910085e+00  1.4425979425723401e+01  6.6882232606131362e+00  5.2353726521007271e+00  -4.3178814596850251e-01  6.1487064213353140e+00  -6.5561751832692892e+00  -2.1754338609489835e+01  -3.0099801243781252e+00  -9.6014801940362009e+00  5.8497009126281068e+00  6.8918644811496343e-01  3.4076541401003196e-01  2.9847350239054657e+00  -1.2526888686560321e+01  -1.8405085812406137e+00  -2.2848485373859155e+01  9.5128235474048086e+00  6.8796750780868638e+00  -5.0450192899478115e+00  -2.2101211356022317e+00  -1.3689695633211672e+01  -6.2466048246205421e+00  -2.4963865626465984e+00  -4.7858090325491620e+00  -1.1720476647243864e+01  -8.2136921049484116e+01  2.0892787733393994e+00  7.7146045354752335e+00  9.3594911481241372e+00  -1.1493275622492233e+01  6.5732314963617283e-02  -1.0119379935678989e+00  -4.4641990079749556e+00  -1.2997639545712154e+00  6.5862455445999908e+00  -4.0832067453547671e-01  4.5672151664674798e+00  7.7758341140676350e+00  1.5195990289691075e+00  -4.1469939740063069e+00  5.8629173503773124e+00  -4.2367772050427156e+01  4.5300844908385702e+00  -6.3809355743649796e+00  -6.0444208498087493e+00  -1.7031484550179341e+00  7.7329906309807690e+00  -8.8011934205104012e+00  -5.7454103479136964e-01  -9.0520950619533522e+00  2.0314570977136266e+00  4.2682255001462153e+00  8.2453077815716593e+00  -5.6022815317677424e+00  3.0181047265211349e+00  5.5575860951400902e+00  4.0305326362815856e+00  -1.1548027483059411e+00  1.0763055188975374e+01  -4.4289625278852469e+00  2.3750051660136084e+00  6.1699758999134353e+00  -2.5116242543619020e+01  1.9527543987633176e+00  6.6850959483637427e+00  4.9981144798267731e+00  9.8935918996588921e+00  1.9589367565790528e+00  9.0444731274255421e+00  -9.0814155132334875e+00  -8.0022547286946799e-01  -9.1556030222328726e+00  1.4404340144202141e+01  -1.3678647499949822e+01  -2.2275178124759742e+00  6.5653348711041382e+00  -3.1664353954753199e+01  3.0596011254267386e+00  1.3194190455084208e+01  -1.3816972999019024e+01  8.2977254638712825e+00  5.8725736565259261e+00  -1.8023075164568410e+00  3.5495743922890668e+00  9.9460739833471870e+00  8.3954420916631056e-01  1.4808094455265715e+01  -1.1061944169259592e+01  -2.0219120994408819e+01  5.3599860007044429e+00  6.6967062788479623e+00  -2.1336310095955348e+01  -5.3489940526801441e+00  1.1380551318470264e+01  -1.4995613925296720e+01  1.0087853686057646e+00  1.7749011454504262e+00  7.6675495384090153e+00  7.8414875447537546e-01  -9.0670359382525056e+00  4.3372826665090924e+00  -1.0287816192893576e+01  -6.0197591290152577e+00  1.0680931710162376e+01  2.1011893853992278e+00  -8.8080762661732676e-02  -1.7276247810105636e+00  -8.3849554469387080e+00  4.5579716820418561e+00  -1.0173398364543109e+01  4.7392801204014052e+00  1.9364132007868702e+00  -1.6459743964503364e+00  4.5289143004467931e+00  2.3964985149928735e+00  8.7896296812089787e+00  -2.5046732859876615e+00  1.5803406316407159e+01  8.8641120736293946e+00  -8.4027573678645169e+00  -2.8288583037553954e+00  1.8460707875631663e+00  3.6245812495813285e+00  5.8534051507916338e+00  6.6100738537316133e+00  3.3215825281617986e+00  8.3205657387508971e+00  2.6388671426703350e+00  9.3891290439173201e+00  1.6902769073560280e+00  -1.0714672940332144e+00  9.4943848539117361e+00  1.0746177236896827e+01  -7.3527892389676541e+00  -4.9990429252776164e-02  -1.2052898429191496e+00  1.4778935990506367e+01  7.2163944748984665e+00  -4.5052461612802031e+00  7.8992929869644088e+00  -1.4948938809642915e+01  -1.6191663733096844e+00  -7.2584399056783255e-01  3.3023204886380930e+00  3.5093525252457853e+00  3.5045903726243428e+00  1.4663942272761190e+01  3.9377369035443719e+00  1.0962395333646203e+01  5.2934051617792734e+00  1.5294557070241945e+00  2.7069564236807917e+00  -1.1287298937580438e+01  -1.6031911750942418e+00  4.2777655493415356e-01  -1.2200518857115601e+00  -2.3775265361898668e+00  9.1946394692147919e+00  7.9388398533300908e+00  5.3926626902731947e+00  6.7690433671344961e+00  -4.0059366517927550e+00  -8.0495877762195640e+00  -5.9651494711044712e+00  1.5782502020175462e+01  -1.3394983709603852e+00  9.6285353268255296e+00  -2.7675706033147778e+00  -1.1808991488535625e+01  -1.4596597497599084e-01  -1.0843361926289779e+01  6.3653624030576852e+00  -3.7900490376175334e+01  1.2706926596229479e+01  -4.3845120190556717e+00  -7.5083462123703626e-01  -1.6677820696159704e+00  -7.2985858895525468e-01  2.7149351392786680e-02  3.5630989523064662e+00  -1.6643436165400292e+01  1.2524817376803394e+00  3.8330597963404829e+00  2.7449177841078809e-01  -2.5237266793831392e+01  -1.3540396062944708e+01  -1.1556228083524980e+00  8.5445381382142571e+00  1.4090421249018984e+01  1.1402736931971681e+01  -2.5429909851205670e+00  -8.2222081732672141e+00  6.3735764258729102e+00  -9.9971247809370323e-01  5.6963390803328888e+00  -6.6462173373660285e+00  2.6165824667378450e+00  2.2042767113250723e+00  1.8533417964750167e+00  -1.5532783690169541e+01  -1.6751861907211548e+01  1.1696229301187017e+01  8.6948914757516977e+00  9.3286883554465021e+00  2.5561667612358527e+00  2.1195859419196861e+00  7.9499206197335193e+00  -2.7182650023111288e+00  4.9871593061749415e+00  6.8925501424650037e-01  -1.6936709471968889e+00  -1.3568109839962148e+00  4.4836342177200912e+00  4.6346809358815246e+00  1.2284239534517487e+00  -1.0804300371162721e+01  7.3889143349873718e+00  -1.7800406399594115e+00  3.7175754425455443e+00  3.1722639560878796e+00  -1.0918455517210761e-01  -1.5340855635642201e+00  1.5899365603505855e+01  2.3807623238328572e+00  -2.0737614038790986e-01  1.3868001936620331e+00  2.8911991421629359e+00  4.4900289365734958e+00  3.0738003158686258e+00  -9.0748891285192261e+00  1.1041074101087226e+01  6.5668832749525672e+00  9.5253702102758409e-01  9.4595460439780048e+00  3.8967185936462769e+00  2.2514602394856600e+00  8.1949352055400038e+00  6.9698420850114040e+00  7.7850657083123993e+00  5.2620193614124053e+00  2.7951619216943984e+00  9.1234569470490108e+00  5.0322839890826101e+00  -1.3514312658848265e+01  -6.3321696403982894e+00  9.6799507750367013e+00  4.1543058532050523e+00  5.9464291660077988e+00  -4.6559609639695241e+00  -1.5925271155952220e+01  7.0718991025262836e+00  1.1649520895047893e+01  1.2695454553426762e+00  -1.6919841559329123e+00  -1.8174086776750190e+01  8.8111762592872509e+00  6.5165439039997013e+00  -3.0603562981763366e-01  4.6466712454515374e-01  8.6522818303625826e+00  -1.1471834329578959e+01  5.9210068082605281e+00  5.8973285568825791e+00  -5.4659406149946701e+00  3.3616535251230051e+00  1.8031439696370022e+00  4.3831304875860893e+00  -1.4036085770319966e+00  -1.4004060168858734e+00  5.0007225910386923e+00  7.6315785924795190e+00  -1.7920913777779258e+01  1.1128489718425671e+01  8.2180251301729932e+00  5.5642443640664494e+00  -4.4704708854151978e+00  -1.1794978891629395e+01  4.9310676161520348e+00  5.4035822374392408e+00  -1.1851132797140704e+00  4.9165543318517280e+00  6.1349191097524329e+00  6.0758822318420265e+00  -1.3127823143880226e+00  4.5673924440480436e+00  6.5736306196961900e+00  8.9611218131918893e+00  5.5927837612109759e+00  1.0289021602611479e+01  7.1522984334044981e+00  -9.8189993458563229e+00  -1.7183169030489623e+01  7.0141242679804057e+00  1.6241395466094724e+00  6.5861920225090174e+00  -2.4781588015014431e+00  -5.8454003226558644e+00  -2.2101773157634601e+00  -2.3127667066270652e+00  7.6848895597974938e+00  5.4584692987787662e+00  -7.0138401140982998e+00  9.2912088405799693e+00  -2.3885048370835693e+00  5.5950588252342000e+00  -6.6814959556730438e+00  3.9408698823633062e+00  1.0881181481245104e+00  8.3724110