<?xml version="1.0"?>
<VTKFile type="UnstructuredGrid"  version="0.1"  >
<UnstructuredGrid>
<Piece  NumberOfPoints="1326" NumberOfCells="2490">
<Points>
<DataArray  type="Float64"  NumberOfComponents="3"  format="ascii">96603.34473994371 -2526306.047878345 0  94860.60104826238 -2521555.331840433 0  89916.18910953001 -2520321.892021782 0  84854.43317180585 -2519718.168215757 0  80314.61977464544 -2517524.417362525 0  76867.98081799694 -2513782.62138356 0  73622.28534584872 -2509858.15374663 0  69467.76628603124 -2506905.752812294 0  64799.63770779336 -2504929.879423514 0  59904.00628883143 -2503518.991897912 0  54853.4132252968 -2502818.502159722 0  49865.74266884173 -2501759.910851945 0  44902.29624028521 -2500587.726242681 0  39988.84419425165 -2499231.836848111 0  35326.06195241294 -2497171.562334582 0  30732.67892640584 -2494955.941541187 0  26188.37022064427 -2492651.666400339 0  21142.71118526055 -2492465.484781222 0  16073.49686451788 -2492476.534328528 0  11249.88497984429 -2490838.458115397 0  6275.636893040417 -2490143.933823594 0  1193.806478562084 -2490412.748797283 0  -3902.046734771465 -2490268.82376175 0  -8998.502509635846 -2490140.206190224 0  -14087.98843244329 -2490311.920017995 0  -19072.76501559985 -2489258.985501559 0  -24134.22051119845 -2488749.415787704 0  -29207.87057342275 -2488375.066351614 0  -34218.08627631886 -2487427.008901847 0  -39189.23133703125 -2486293.710699708 0  -44152.12914232024 -2485122.28931942 0  -48942.15893786328 -2483379.377937937 0  -53492.16616988417 -2481090.28494475 0  -57855.96717375102 -2478455.312193218 0  -62193.35327696647 -2475777.256655459 0  -66734.7217609587 -2473473.07162704 0  -71629.44360672109 -2472062.354387843 0  -76605.42762672834 -2470968.125447943 0  -81687.42440416579 -2470552.439740983 0  -86588.87327080002 -2469195.6250539 0  -91342.29161834823 -2467367.081011288 0  -96385.91209299464 -2466668.227104886 0  -101474.8629163414 -2466882.545448536 0  -106540.8187674373 -2467455.112498367 0  -111624.4708969785 -2467139.131912842 0  -116583.0937090509 -2465966.5534783 0  -121580.017949441 -2464949.548308367 0  -126623.4433166535 -2464245.167141903 0  -131604.9070930343 -2465247.848534836 0  -136683.2389090839 -2465610.680536482 0  -141754.1121788068 -2466091.929756206 0  -146766.9278916852 -2467023.421123319 0  -151832.3344478887 -2467614.947838792 0  -156729.8631253032 -2468963.099225741 0  -161356.8679126435 -2471087.126636002 0  -166344.9130535806 -2472132.098533388 0  -171205.4000231276 -2473668.170313003 0  -175690.4815660599 -2475925.881551192 0  -180782.077071478 -2476186.282570609 0  -185820.219698279 -2476962.888174891 0  -190885.1761619994 -2477486.238486874 0  -195958.718485464 -2477070.777123353 0  -200770.3899254332 -2475408.279856857 0  -205546.8692873479 -2473627.530664755 0  -209925 -2476425.000000183 0  -213925 -2479425.000000258 0  -214924.9999997705 -2484425 0  -217925 -2488425.000000178 0  -222925 -2488425.000000206 0  -227924.9999996851 -2490425 0  -232925 -2490425.000000743 0  -230925 -2495424.999999744 0  -225925 -2496424.999999752 0  -220925 -2497424.99999979 0  -225925 -2499425.000000353 0  -229924.9999995978 -2503425 0  -226925 -2508424.999999596 0  -221925 -2507424.9999998 0  -218924.9999997628 -2511425 0  -221925 -2515425.000000849 0  -219925 -2520424.999999252 0  -217924.9999997316 -2525425 0  -215924.9999997395 -2530425 0  -210925 -2534424.999999748 0  -207695.1762873305 -2538283.331010084 0  -202610.003292264 -2538557.326950263 0  -197551.2812357417 -2537962.352403814 0  -192586.7846688663 -2536802.202322438 0  -187886.3172509225 -2534838.659802383 0  -183067.9131816343 -2533373.075319428 0  -178006.5944919084 -2533348.025387061 0  -173096.3206111284 -2531971.089245703 0  -168154.4707244109 -2530728.400061458 0  -163065.2698403882 -2530423.147888537 0  -157987.7112299006 -2529949.671118056 0  -152890.9759372371 -2529787.855613952 0  -147791.9733645757 -2529884.250588803 0  -142723.2074055563 -2530354.997525746 0  -137890.6974745849 -2531977.703025593 0  -133045.6363466379 -2533563.235953474 0  -128109.5141690132 -2534819.603032706 0  -123908.5019986107 -2537684.70852565 0  -119365.8295432994 -2539988.257521542 0  -114618.1583481154 -2541821.659205975 0  -109604.147847917 -2542748.549401302 0  -104673.4556643177 -2544050.222444715 0  -99756.96429482895 -2545405.251973982 0  -94980.03930230324 -2547139.405420877 0  -90676.52903421161 -2549871.7549917 0  -86164.59726942258 -2552248.345338716 0  -81544.12962656711 -2554395.380522063 0  -76695.18525800858 -2555973.931655067 0  -71996.71883487799 -2557946.594544498 0  -67378.42867831457 -2560105.995067715 0  -62512.92023756374 -2561619.149394813 0  -57632.87923718365 -2563067.6042289 0  -53448.17374070523 -2565936.805034175 0  -49357.19710917832 -2568949.800581331 0  -44747.76575842882 -2571125.049501965 0  -39936.56202196161 -2572815.140052464 0  -35043.49595267572 -2574251.778992833 0  -30186.85583324296 -2575807.108651876 0  -25441.46162825862 -2577673.834227397 0  -20483.48359734264 -2578824.060273113 0  -15445.91612176793 -2579584.499333627 0  -10444.76618652894 -2580522.821899309 0  -5380.097898548018 -2581011.015809262 0  -501.9441734893476 -2582491.274790911 0  3947.669904813003 -2584956.055854702 0  8360.564558078528 -2587486.156477657 0  13237.81566230644 -2588966.755225136 0  17930.75104168088 -2590921.070110867 0  21771.92334622858 -2594204.738500396 0  25002.74283675226 -2598144.263784821 0  28471.2067548034 -2601878.28276416 0  31805.69611113194 -2605718.553501856 0  35848.36394223652 -2608815.389500747 0  39032.55688861636 -2612797.168149744 0  42297.65455396404 -2616714.2500949 0  45587.40098337106 -2620611.195181062 0  48516.03213121062 -2624756.254407449 0  53165.60184108299 -2621282.616958878 0  55441.3416945093 -2616320.54187789 0  57717.08154793562 -2611358.466796902 0  59992.82140136193 -2606396.391715914 0  62268.56125478825 -2601434.316634926 0  64544.30110821456 -2596472.241553938 0  66820.04096164089 -2591510.16647295 0  69095.78081506719 -2586548.091391962 0  71371.52066849351 -2581586.016310974 0  73647.26052191983 -2576623.941229985 0  75923.00037534614 -2571661.866148997 0  78198.74022877245 -2566699.791068009 0  80474.48008219877 -2561737.715987021 0  82750.21993562509 -2556775.640906033 0  85025.95978905141 -2551813.565825044 0  87301.69964247772 -2546851.490744056 0  89577.43949590404 -2541889.415663068 0  91853.17934933034 -2536927.34058208 0  94128.91920275666 -2531965.265501092 0  34167.66165435265 -2546010.433809835 0  -9702.44596617426 -2535485.11809032 0  -48014.98508742747 -2525481.436887715 0  -83920.20274467496 -2509611.945131382 0  -117339.7306085182 -2500587.117934454 0  -148600.7656580886 -2498440.109940145 0  17408.22070543401 -2521371.212968104 0  -190949.6955696386 -2505985.407902659 0  42673.26298168127 -2573919.255139432 0  61304.33950744537 -2537220.937316896 0  7919.86000545044 -2556229.22377694 0  -32917.06887426249 -2547666.220837255 0  -24177.58586678513 -2514252.468008148 0  -71888.88373671086 -2531428.351180482 0  -60497.16818017218 -2504407.969669783 0  40440.0482385106 -2523974.848810697 0  -97452.83857325287 -2490530.958170839 0  -104443.4738236792 -2520892.582661391 0  -168513.7367793184 -2508027.41121581 0  -14002.18983097047 -2557774.877745125 0  -2740.292503471683 -2512201.793152541 0  -132419.7046597875 -2486056.575529079 0  58568.42326537703 -2559188.948041691 0  22735.27249627505 -2570393.312579918 0  -75802.6532880555 -2491519.370259468 0  -55270.54021977298 -2543843.424948696 0  -134873.8069341509 -2513339.541968158 0  -41054.61206037777 -2505263.234137338 0  44395.12047769513 -2592445.165300565 0  -165120.3519070242 -2490389.61498888 0  8197.214592936049 -2538048.420331754 0  -89519.7109657035 -2530254.010156752 0  -201164.1189831511 -2521120.549378251 0  -113384.186674389 -2484300.165916822 0  57601.94746743792 -2520797.677585155 0  -30808.03856426448 -2529059.458406818 0  -200770.3654249554 -2492795.506416648 0  -181081.3349783963 -2492764.999299677 0  29000.01345251895 -2512665.833809018 0  -149074.5838038852 -2484003.741694783 0  -120311.6764027861 -2520591.374245398 0  75733.38804798923 -2532799.242834303 0  -153769.0901489208 -2513970.643377138 0  -181064.6123605132 -2517968.587424158 0  -99319.61109373288 -2504820.405269538 0  11680.60204608414 -2507440.947016951 0  -70156.41415356193 -2516247.207298845 0  27972.15966634774 -2532403.837121567 0  42332.79454975695 -2558857.86041379 0  46337.40143903706 -2537279.481288429 0  -28451.3510131154 -2561013.040837472 0  -2186.017636991198 -2566435.945371256 0  22580.49303807972 -2555991.810800608 0  58020.61661375119 -2574269.640485225 0  -205559.3530791283 -2506260.629863092 0  30919.34842734508 -2582716.810324717 0  69670.33374598324 -2549551.095131685 0  -3145.578006897069 -2547956.769847158 0  1009.428156626846 -2525871.08425747 0  -14633.5324062812 -2504632.523236577 0  -46051.06296108647 -2554321.128514116 0  -19648.53003898157 -2544837.755953503 0  -11834.03953960044 -2521219.650733941 0  -68467.62054762521 -2544082.89475151 0  -131248.8785105995 -2499518.155964629 0  -61998.43689416378 -2491615.760497082 0  -42604.09188429508 -2537412.364552005 0  9373.129040207479 -2572769.444633647 0  -85943.7353653918 -2483137.848826976 0  -28351.30068705606 -2501568.69138444 0  20329.45232180002 -2542806.702733155 0  -37103.4986048183 -2517491.683723277 0  -81431.70818491573 -2540189.326198373 0  -58832.76358060582 -2531418.440981773 0  -50523.14080998801 -2496235.008103674 0  -57535.74948273573 -2516684.044058037 0  -87709.61892097599 -2497560.781252217 0  -73213.58833436994 -2503891.954745851 0  -122870.7356247092 -2477790.453912621 0  -101693.4176978432 -2479247.688806427 0  -112511.8665092294 -2530164.40746855 0  53261.22178745652 -2547767.871315125 0  46787.10650847246 -2513935.735884324 0  -80899.60619525104 -2521520.09769718 0  -92977.45261465941 -2518061.948357456 0  -106808.7100428131 -2496973.222943923 0  68625.91227505662 -2522706.334974116 0  32
[...]
<PointData  Scalars="f_68"> 
<DataArray  type="Float64"  Name="f_68"  format="ascii">4.0282242183368533e+02  3.8646967656928553e+02  3.6810240201685690e+02  3.5513764325851099e+02  3.4564440675630431e+02  3.3967648835792590e+02  3.3722658024586957e+02  3.3696229061247641e+02  3.3797969419512629e+02  3.4132069320890923e+02  3.4685552049187970e+02  3.5365222897388492e+02  3.6155642290014885e+02  3.6809669634362967e+02  3.7083370228543674e+02  3.7252796678970213e+02  3.7655451484948929e+02  3.8403451178725783e+02  3.9081625221041315e+02  3.9441928668580158e+02  3.9746004822024872e+02  4.0047150560881136e+02  4.0258271352813716e+02  4.0244982241071676e+02  4.0072953769773852e+02  3.9855472905718551e+02  3.9771444467689440e+02  3.9690335587937665e+02  3.9491754693602104e+02  3.9294185767005024e+02  3.9258286428330348e+02  3.9287042289712059e+02  3.9405856373974495e+02  3.9508511574614192e+02  3.8936922862593451e+02  3.5794660756755735e+02  2.9427994615949399e+02  2.3824212658927021e+02  2.1396436137452443e+02  2.0073950271720810e+02  1.8768496033698614e+02  1.7531185605708743e+02  1.6201594455253621e+02  1.4464551084296096e+02  1.1922969136369640e+02  8.8873604960778522e+01  5.9218330617866400e+01  1.3390513481038056e+01  -2.3317118965517810e+01  -5.4978824014409724e+01  -1.0396957049107246e+02  -1.5298107223755750e+02  -2.0414696102998914e+02  -3.1118750758591585e+02  -4.6116264013291897e+02  -6.7200652117967616e+02  -8.4416732970011196e+02  -9.7772389562859053e+02  -1.1893912182440424e+03  -1.3249689109941928e+03  -1.3613767676163930e+03  -1.4497754029635994e+03  -1.6943854513663759e+03  -1.6252384422857876e+03  -1.0403705798705826e+03  -9.0521241632610713e+02  -1.3212633434709478e+03  -1.3300803571213496e+03  -9.3686333439234170e+02  -1.3789954854576463e+03  -6.6595273344075838e+02  -9.0640340892247650e+02  -1.4251132906596270e+03  -1.9253047686495356e+03  -1.1593472466112332e+03  -4.6950105685623424e+02  -5.7523141438298319e+02  -1.6849379977867789e+03  -2.2116132159756407e+03  -1.3873641153191211e+03  -1.8184465225128581e+03  -1.2729949146584026e+03  -9.7550159931808139e+02  -1.4671629949048522e+03  -1.8727836773556819e+03  -1.9078102340168866e+03  -1.6987318679595273e+03  -1.5310872076837629e+03  -1.3978413690427387e+03  -1.3434322384617601e+03  -1.1579846420981642e+03  -9.0600949311074373e+02  -6.0176900128051761e+02  -4.0079329764492473e+02  -2.5755783520967509e+02  -1.9351969102596377e+02  -1.2642358029729510e+02  -7.7745790163491776e+01  -6.5536026555133361e+01  -2.4513322963749133e+01  2.7443658932589479e+01  5.3415779438101112e+01  7.8429058281225110e+01  9.8693512427692980e+01  1.3390822123153663e+02  1.7516349856681828e+02  2.0856318169675086e+02  2.2782057013995896e+02  2.3844900911880504e+02  2.5554232974173539e+02  2.8259452385562054e+02  3.2435688438049766e+02  3.7144583775848639e+02  4.0011548703346870e+02  4.0591800758365309e+02  4.0375428335996429e+02  4.0103100689082208e+02  4.0026308619339329e+02  4.0132806738167795e+02  4.0195076901140897e+02  4.0136980707128606e+02  4.0110212302537207e+02  4.0225702621768960e+02  4.0489031377880400e+02  4.0754375364573764e+02  4.0963230695772120e+02  4.1191898555207814e+02  4.1493397942655224e+02  4.1776737041667400e+02  4.1953093966308046e+02  4.2038540352960138e+02  4.1960425809848732e+02  4.1650831708547895e+02  4.1363097793082369e+02  4.1093723059487081e+02  4.0825549715026995e+02  4.0593527229298530e+02  4.0672885986920676e+02  4.1098528410936166e+02  4.2411797877429080e+02  4.4593337165113132e+02  4.5019261211424708e+02  4.4161628519637941e+02  4.3661485932402002e+02  4.3333800544821116e+02  4.3136749077945882e+02  4.3036920326297388e+02  4.3107752596408500e+02  4.3191259753994660e+02  4.3102643557271557e+02  4.2904721251899468e+02  4.2758367537979046e+02  4.2670827333768500e+02  4.2563088300872755e+02  4.2359364999768979e+02  4.2010013491104314e+02  4.1688869192509060e+02  4.1459114782754278e+02  4.1188009335890308e+02  4.0795610219971110e+02  3.9605673345842069e+02  4.2023338649112304e+02  4.3102118393579474e+02  3.3050130782932854e+02  9.4272205565472987e+01  -2.2445086339321855e+02  4.0157688188164929e+02  -1.6735566032200873e+03  3.8726485777278810e+02  3.6229874965822250e+02  4.1265945116765545e+02  4.2155637746449389e+02  4.1664797873953313e+02  4.3075190478468812e+02  4.2307427272805785e+02  3.7743701006692032e+02  2.3939907648791001e+02  1.9392466218082868e+02  -7.1055336098909993e+02  4.1527845756716351e+02  4.0982538081641093e+02  -5.0431045783022334e+01  3.7223644487524444e+02  4.1102689202192158e+02  3.1291278612077593e+02  4.3365983830369817e+02  -9.4227112739830915e+01  4.1220127629480749e+02  3.8831201935654792e+02  -5.2141909388826355e+02  4.0950261783714416e+02  2.8897244118256117e+02  -1.8928308905047729e+03  1.5012707884231267e+02  3.5538294945237186e+02  4.2843994052812764e+02  -1.8706921036903939e+03  -1.3189006338729259e+03  3.8140664593324988e+02  -2.4666846471327710e+02  3.4009930666743195e+01  3.6117820588752318e+02  -2.6309827197704482e+02  -1.3628521435121138e+03  2.3296994126867324e+02  3.9713383528836471e+02  4.4462459326003710e+02  3.9842904047435974e+02  3.8686876906579164e+02  3.7636533679525803e+02  4.1144137671109877e+02  4.1384308077494859e+02  4.0928251011935288e+02  3.8472348383997110e+02  -1.9130006920488429e+03  4.0658741289241868e+02  3.7477960420060305e+02  4.1954139310980224e+02  4.0927780183506979e+02  4.1099140905951657e+02  4.1832694165031251e+02  4.2110105229842935e+02  4.1996277923647204e+02  4.2264836069101506e+02  -7.4201459176380268e+01  4.0808912283167058e+02  4.2846411632647022e+02  4.1461849632394421e+02  2.3669528253011623e+02  4.0536592414571987e+02  4.0702749328536089e+02  4.2365173294747626e+02  3.2007376056050350e+02  4.4665992977300147e+02  4.0870614046991460e+02  4.3318638115499260e+02  2.8188159770634013e+02  4.1247567056557403e+02  6.1253017509052782e+01  2.0068349760591931e+02  1.1437724223221852e+02  3.7056423492718102e+02  3.6557360513484338e+02  3.6561711222030624e+02  2.7411481866248391e+02  1.9928422109751003e+02  3.4604037384648893e+02  4.0155959973033231e+02  3.9158903416453381e+02  4.0242670073851474e+02  1.1393850273414797e+02  2.2308822275100454e+02  -1.1683297271850354e+03  -3.9818488597946623e+02  -4.0618134568312576e+02  -1.3322954084966378e+02  4.0462282378174348e+02  4.2511097531872559e+02  4.0627949317199938e+02  -8.0958943877524888e+01  3.8321342051618990e+02  5.1347723531233584e+01  -3.7746701381820378e+02  -1.3943218341877905e+03  -1.7465113388534528e+03  -4.8277212996202621e+01  4.0450763253722982e+02  -1.8341289445367348e+01  -1.9925797019077290e+03  4.0560657441972688e+02  4.2564364745330340e+02  -2.5306589006450481e+03  4.0213944149586212e+02  -1.4701704889613933e+02  3.6786455447429870e+02  3.9076739661114107e+02  -1.7342473615244279e+02  3.7711747289837126e+02  4.1123109145938656e+02  4.1654236855289304e+02  3.1784376167361427e+02  3.9133088775309147e+02  4.1068000857498515e+02  -9.3694910893279109e+02  4.2374762568694138e+02  -7.3379666484125960e+02  -3.2383329947996077e+02  3.8053069878131765e+02  3.7192028311089740e+02  4.2342113115867710e+02  3.8547536388156357e+02  4.1001286439551137e+02  4.0248970163314073e+02  3.9241079339411624e+02  4.0105997691143904e+02  2.1273577736996805e+02  3.9333679663003301e+02  -1.8983657067447803e+03  3.9155667599656249e+02  4.1622888315397734e+02  4.5360791952476643e+02  -1.4877453743868982e+03  3.7557773403418685e+02  4.2035048932041497e+02  4.1732919684195326e+02  -8.7440429782601257e+02  4.1070732836420814e+02  4.1676749388955255e+02  3.9700528908164705e+02  4.0885409495584815e+02  -1.9977736913689030e+03  3.4287401076959151e+02  -1.8794089266431022e+03  2.6430389179856712e+02  3.5570454016402431e+02  3.9907845141538439e+02  2.3614878369056490e+02  4.0644844215725885e+02  4.1384021849186058e+02  4.2705939693606410e+02  1.2104988679205617e+02  3.9525678477520080e+02  3.5020225559826616e+02  3.4844226025148555e+02  4.1615172625861891e+02  4.0510277570214055e+02  -1.3983505691069186e+02  4.3452372325887984e+02  3.6426726382010531e+02  4.2636794121528283e+02  2.0826137461227987e+02  4.2899985506569806e+02  5.5790207530328637e+01  4.1216760244801424e+02  3.7961359270306025e+02  3.9672962581597915e+02  3.3670039223769436e+02  2.4954734177063770e+02  4.2102701607497545e+02  -2.2698495302043234e+03  3.9763035557651477e+02  1.7888312033151516e+02  3.6593722355650050e+02  -6.9254469816343885e+02  4.1477841149083019e+02  4.4392754083955288e+02  4.1700133509920954e+02  -1.3781106017388352e+03  -2.6098322906687838e+02  2.8155146435622589e+02  1.4841700217698710e+02  4.1651320618730904e+02  4.1551361973924611e+02  3.7506904947021371e+02  -2.4192268972421817e+02  -2.2194322800277796e+01  -4.0140789818159664e+02  4.1146159962602792e+02  3.7752478940545154e+02  -3.1911967543493478e+02  2.5294808988487893e+02  3.9288708983026197e+02  3.7653161838253811e+02  4.0137808101181554e+02  -2.4577109958774618e+03  -1.7268734239467783e+03  2.2783796484600640e+02  -1.4461280515838514e+03  1.1035247223032431e+02  -1.0262599516494083e+03  4.1035366147921343e+02  4.0295411639763893e+02  4.0537882071526781e+02  4.2784786604628641e+02  -1.9156374283168830e+03  3.5055985042846464e+02  4.1600438792542423e+02  -1.3669376833060894e+03  4.0416732606805817e+02  4.0191995877295483e+02  4.3395509078253315e+02  3.4696521738233474e+02  4.1628715948770542e+02  4.1817018141611800e+02  3.8961803711910693e+02  4.3888586875223655e+02  -1.6373680895563241e+03  -1.4992616697958499e+03  4.0537389977791844e+02  4.0325671312557887e+02  3.8669153499564300e+02  -1.6955112911065455e+03  2.5363582342487746e+02  4.2178395152685323e+02  3.6824240631888000e+02  4.1379073763682072e+02  4.2722539774915572e+02  4.1025259387108116e+02  4.0898834960007639e+02  4.1450372240955573e+02  3.8466572804838654e+02  4.1597612144279844e+02  4.1568558530929903e+02  4.1959389946585958e+02  4.0980051368084276e+02  -8.7131272710047043e+01  3.9730362086394985e+02  -1.2109409755850815e+02  3.7779036686420278e+02  3.9586281087579060e+01  3.7863714969290749e+02  3.6847267437405628e+02  4.1160280441095404e+02  4.1057956953768633e+02  -1.6060957324369627e+02  4.1092526002888661e+02  1.6374832146090645e+02  -1.0638107001491447e+01  3.7234475780918547e+02  -2.0156685799734180e+03  -5.0279365071856837e+01  4.0526353189436486e+02  2.3084853195221575e+02  4.0141136711431022e+02  -8.1401320872247283e+01  1.8641540304481606e+02  4.0083961366060697e+02  4.2093094470426655e+02  4.2187669526101467e+02  4.1084123405268451e+02  3.5580003943148819e+02  4.2167799971156455e+02  -1.6328785588414121e+02  2.6497450144694153e+02  4.2766117608504351e+02  4.1457082113639132e+02  -7.5243151367553833e+02  3.0846741731687825e+02  3.8374925585653568e+02  -8.3109314722567618e+01  3.9782857596394831e+02  3.9980771264170147e+02  1.6215090701408843e+02  4.0654058518790339e+02  2.2185175190011063e+02  4.0633567145274139e+02  3.2561082695230800e+02  3.9263676086977551e+02  4.2287936479903919e+02  2.3119413132533418e+02  3.8614030591652687e+02  4.1512564679569334e+02  2.7237997174984667e+02  4.2537129229330435e+02  1.8783861575555463e+02  4.1523528104243957e+02  4.0571384622908590e+02  -9.1320591636985296e+02  4.5214618315982381e+02  -2.1349157087938852e+02  4.0710419086995284e+02  3.5897240689656724e+02  4.2531366793409472e+02  3.6461820756631073e+02  4.2296350278604433e+02  2.7691158127948643e+02  4.2642014128788486e+02  3.9937421292345539e+02  4.0797053686060144e+02  4.1890485842852502e+02  1.8594492694729277e+02  3.8555810353443576e+02  4.0494841427605138e+02  -1.9566633955903537e+01  3.1530237322551439e+01  -1.7108362059551437e+03  4.3061253297052531e+02  4.2957470091197854e+02  4.3860793985192595e+02  1.3792543846339298e+01  4.2093581951325984e+02  4.4118892490619021e+02  3.9850908054527105e+02  3.1951072004295645e+02  3.7667879815031034e+02  3.4173957395070090e+02  -1.9671259096446829e+02  3.6760854983812027e+02  4.1919171343874706e+02  7.6585575912486107e+01  3.5600451625898003e+01  -4.8260713930480517e+02  4.0458969081451551e+02  3.8442384123317140e+02  -1.0859726067536194e+03  -3.2355895631331634e+02  4.0907378477500566e+02  4.0762597974684195e+02  3.9569105461999590e+02  4.0846366532976396e+02  4.1286188868613363e+02  4.1186748847563740e+02  4.0550476129755583e+02  -6.4106404238659014e+00  9.1059643444114357e+01  4.0826474235767290e+02  4.0746891164590556e+02  4.2565939700001650e+02  -1.1222901890812149e+02  4.1737842524142366e+02  4.0550120026273919e+02  4.0255265017162981e+02  4.1776872753286790e+02  1.7959331132368462e+02  -1.4096899625737244e+03  4.1050840343068626e+02  9.2026305769498606e+01  3.0363785095778286e+02  3.7730042806363383e+02  3.7303496896529106e+02  4.0709210893182359e+02  -5.6958183307928994e+02  3.6925735589338365e+02  -1.6475231333577558e+03  4.3495680468571823e+02  4.1509424608721179e+02  2.3257715394748590e+02  3.6123374722691995e+02  -9.3722058159397648e+02  2.1760561755890802e+02  3.8199874291018040e+02  1.5188309506889667e+02  -2.0930183304533830e+03  -2.7025647311465623e+03  3.9540849989934782e+02  -5.4210112581362310e+01  4.1720756881259859e+02  -1.5072525561377165e+03  -5.5903211201357931e+02  3.5648868954088323e+02  -2.0571871806726278e+01  3.5255720887770741e+02  2.5452393254952938e+02  3.9251219570762311e+02  4.0037329715896385e+02  2.6174906346746366e+02  4.0032005600622625e+02  -3.3098180257428515e+02  4.0132244201550839e+02  -3.0309395152839029e+03  3.7748328730570807e+02  -3.5348388726052775e+02  -3.5786416986364532e+02  4.0742968158035524e+02  2.9404655559392393e+02  -5.0713060491080421e+02  3.4776058569167344e+02  8.7789804026745458e+01  4.0313674491522681e+02  4.0527663113369260e+02  4.2735085461139437e+02  2.2025485663313364e+02  -5.7400000269870202e+02  3.9270687082673641e+02  3.8467656113366490e+02  3.8803586270046185e+02  4.0397244145243286e+02  -3.4357222327455952e+02  3.9484411428280066e+02  4.0859036232515462e+02  -1.9587381326266800e+03  1.5100880547703287e+02  4.1253957914820836e+02  4.0651362358635123e+02  4.1586137841634593e+02  2.3752623398564262e+02  4.3785324742229778e+02  -1.3961000716131812e+03  3.8775687165175941e+02  -7.1764844806382087e+01  -1.2135551204879887e+02  -1.5895801005736023e+03  3.4292822141911972e+02  4.2537445980446302e+02  -1.5349192355484540e+03  3.7167606242755164e+02  7.3601773342329267e+01  -1.0586217425338793e+03  4.1958676652923111e+02  4.0024169535568882e+02  3.8031816312584982e+02  4.1032083074377863e+02  -1.0602862550154896e+02  3.7876265841116839e+02  -5.9438451347423594e+01  -3.2840967792768009e+02  -2.3835110259038861e+03  4.2011960687003904e+02  4.4267001270263052e+02  -1.8704106424697104e+03  7.7446216426480433e+01  4.1384000215609080e+02  -2.3205495297072312e+03  3.8150642284247971e+02  3.8268395045397011e+02  4.3053938383275658e+02  3.9264357851337229e+02  -6.2620494180723469e+01  4.1367179836125899e+02  -2.0373733138597372e+03  -1.8645641572687330e+03  2.0524896479900269e+02  3.9356094137456262e+02  3.9368434983628219e+02  3.5236188474026500e+02  1.0215361351974330e+02  3.8905446534209744e+02  -7.1520726092294797e+02  4.0724766633298981e+02  3.8533825571455577e+02  3.6231324133046394e+02  4.0473512488526546e+02  -1.7017250303842590e+02  4.2177527655416873e+02  -1.9140201302014009e+03  -1.0958719541000027e+01  -2.2394481484899188e+02  -1.5473377612238650e+02  3.6696930849033049e+02  4.0075351911603548e+02  4.1333103253977384e+02  4.1846641357605125e+02  4.2864922648574310e+02  4.1269519193136648e+02  4.0969879730466971e+02  3.6156655200003166e+02  4.2486006261538807e+02  3.3804786000472217e+02  4.1544219826354635e+02  3.9794250220423567e+02  4.0708500356682890e+02  -1.0862849005103701e+03  4.1317840708645792e+02  4.0731513320889383e+02  3.5829965433115046e+02  4.1345201793784815e+02  2.1615237398395743e+02  3.8478981335710750e+02  -1.8457796324827791e+03  3.4342227720159605e+02  3.6318557545927411e+02  4.1152895960217467e+02  4.1929787584442545e+02  3.7496245404058186e+02  -8.3541107456121466e+01  -2.2407144913222910e+03  4.0776092407274888e+02  4.1560650690223054e+02  3.8217365903610909e+02  4.1062357213473643e+02  -8.5553548504244895e+02  3.9513755065345947e+02  3.7783103160159538e+02  3.6782164469439323e+02  3.5886929308121461e+02  4.1258187265113872e+02  4.3653650247999099e+02  2.4442311587666950e+02  4.2665237971221899e+02  -8.6563495076294885e+01  -6.9123519406497905e+02  -3.4213363055350794e+02  2.8607279258128585e+02  1.2630916933351327e+02  3.5783974398424903e+02  3.8144811397277471e+02  -1.1570857685196131e+03  3.7451151315293055e+02  -1.1077881795574331e+03  4.2917371678336468e+02  -1.7707941604017849e+03  4.1357265734988692e+02  -1.7174378590043748e+03  3.7263867239440896e+02  3.7287207557739680e+02  2.6122891538312524e+02  3.7248877163960344e+02  2.2436747604885559e+02  -1.5749345159005584e+03  3.9979544826444788e+02  4.1278195978719140e+02  3.1529759854561303e+02  -1.4866521973877661e+03  -1.5842486000378417e+03  3.4873878846120112e+02  4.0821675595276656e+02  -2.6534577111354506e+03  2.5220000986719458e+02  1.9334490936036249e+02  -1.4222721818381917e+03  -1.9398006895905729e+02  -2.5217993679225606e+02  4.4752074637955263e+02  1.8996263705140757e+02  3.8876424762570400e+02  4.0836388894757039e+02  3.9487736460807946e+02  -2.1327893011266569e+03  -1.3786065419748543e+03  4.2756537470960234e+02  4.4697024179835006e+02  3.9925020526065555e+02  3.9706710601921242e+02  3.9697489810386992e+02  4.1371886610295388e+02  -2.0810158316003622e+03  4.1872749419858019e+02  3.7684097521648420e+02  3.6256320225928278e+02  3.3964813789531399e+02  4.0032603363060610e+02  4.1152452928926863e+02  3.7210262239212221e+02  -1.7450845226765841e+03  4.1443348641127585e+02  3.5801744998689571e+02  4.1313709453825743e+02  -1.1663357664936999e+02  4.2781749501097477e+02  3.9164667473698813e+02  1.2423374436799169e+02  2.7891091831608804e+02  3.6973926516431357e+02  3.6543296768741442e+02  -1.9566398635246874e+03  4.1326247317720151e+02  3.8275696942739091e+02  -4.8807047824330022e+02  4.2809499888242004e+02  4.0233745277668856e+02  3.6811406631583566e+02  4.2835227912784688e+02  4.0802701746719072e+02  3.0143370313262608e+02  4.2811682789526390e+02  3.9741543726793549e+02  4.5415162049456023e+02  8.8029492849097153e+01  3.9903239824104946e+02  4.2874426422533031e+02  4.1447957061193108e+02  -1.6391110256429120e+03  -1.6519249788096056e+03  -2.5288039815463648e+02  4.0484951259124114e+02  4.1316199494310467e+02  1.6615927230156299e+02  -1.5528115789899207e+03  4.2231471312304114e+02  -1.1982194597765712e+02  3.8435174966406191e+02  3.5108107001312817e+02  -1.8226874266851937e+03  4.0933989175162588e+02  4.0679124484936438e+02  3.9137350923679571e+02  4.1389858137592091e+02  4.2612917841754506e+02  -1.9921796370017257e+03  3.9537140858519240e+02  4.2962293436150640e+02  -1.8748544685824697e+02  4.0376456840159597e+02  3.8984130297262880e+02  4.1446862283654986e+02  2.7191385006123062e+02  2.2609742878319796e+02  3.8518174119595272e+02  4.0903545701082516e+02  -1.9139110874507960e+03  3.8372723550984688e+02  4.2331245794351059e+02  4.0596804608052764e+02  2.0810829118706016e+02  -3.5996970752679736e+01  4.1859971899707352e+02  4.0827408081561089e+02  4.0819600094294009e+02  4.0803606191808450e+02  4.1376090619084368e+02  4.0922190971295089e+02  2.0748642025551800e+02  4.1621325200896945e+02  4.2120221047926685e+02  4.1376626526419471e+02  3.7179823605119918e+02  4.0623624856578363e+02  4.2824722628622061e+02  -2.1598732833296590e+03  -2.0310821398168937e+03  4.2097327756870732e+02  4.0224076604349483e+02  4.1828078295232575e+02  3.9374341628365488e+02  -1.7155764324401287e+02  4.1445753214790932e+02  2.5621433409758714e+02  4.1885307568775460e+02  4.1049557887145181e+02  -2.1600514530224982e+02  1.4020726088079479e+02  3.6357628581361979e+02  -3.8096543450404380e+02  2.0234263885212923e+02  2.7656534240633522e+02  4.0136361062244578e+02  4.0607835659488848e+02  -1.9487247067364185e+03  -6.6859130734174400e+01  1.3298143500768484e+02  4.0597357958355917e+02  4.0